<?xml version="1.0" encoding="UTF-8"?>

<!-- generated on Tue Mar  9 13:24:21 2021 by Eclipse SUMO sumo Version v1_8_0+1539-607721a8f0
<configuration xmlns:xsi="http://www.w3.org/2001/XMLSchema-instance" xsi:noNamespaceSchemaLocation="http://sumo.dlr.de/xsd/sumoConfiguration.xsd">

    <input>
        <net-file value="/home/tl/sumo/tests/tl/isolatedIntersection/data/simple.net.xml"/>
        <route-files value="/home/tl/sumo/tests/tl/isolatedIntersection/data/input_routes.rou.xml"/>
    </input>

    <output>
        <tripinfo-output value="/home/tl/sumo/tests/tl/isolatedIntersection/data/tripinfo.xml"/>
    </output>

    <time>
        <begin value="0"/>
    </time>

    <processing>
        <time-to-teleport value="-1"/>
        <tls.actuated.show-detectors value="true"/>
    </processing>

    <traci_server>
        <remote-port value="43851"/>
    </traci_server>

</configuration>
-->

<tripinfos xmlns:xsi="http://www.w3.org/2001/XMLSchema-instance" xsi:noNamespaceSchemaLocation="http://sumo.dlr.de/xsd/tripinfo_file.xsd">
    <tripinfo id="0.0" depart="0.00" departLane="WC_2" departPos="5.10" departSpeed="10.49" departDelay="0.00" arrival="115.00" arrivalLane="CE_0" arrivalPos="800.00" arrivalSpeed="13.59" duration="115.00" routeLength="1622.10" waitingTime="0.00" waitingCount="0" stopTime="0.00" timeLoss="4.74" rerouteNo="0" devices="tripinfo_0.0 routing_0.0" vType="DEFAULT_VEHTYPE" speedFactor="1.06" vaporized=""/>
    <tripinfo id="0.1" depart="5.00" departLane="WC_1" departPos="5.10" departSpeed="8.10" departDelay="0.00" arrival="125.00" arrivalLane="CE_0" arrivalPos="800.00" arrivalSpeed="13.73" duration="120.00" routeLength="1622.10" waitingTime="0.00" waitingCount="0" stopTime="0.00" timeLoss="6.12" rerouteNo="0" devices="tripinfo_0.1 routing_0.1" vType="DEFAULT_VEHTYPE" speedFactor="1.03" vaporized=""/>
    <tripinfo id="1.1" depart="8.00" departLane="EC_2" departPos="5.10" departSpeed="9.93" departDelay="0.00" arrival="126.00" arrivalLane="CW_0" arrivalPos="800.00" arrivalSpeed="14.14" duration="118.00" routeLength="1622.10" waitingTime="0.00" waitingCount="0" stopTime="0.00" timeLoss="5.93" rerouteNo="0" devices="tripinfo_1.1 routing_1.1" vType="DEFAULT_VEHTYPE" speedFactor="1.05" vaporized=""/>
    <tripinfo id="0.3" depart="15.00" departLane="WC_0" departPos="5.10" departSpeed="3.59" departDelay="0.00" arrival="129.00" arrivalLane="CE_0" arrivalPos="800.00" arrivalSpeed="15.05" duration="114.00" routeLength="1622.10" waitingTime="0.00" waitingCount="0" stopTime="0.00" timeLoss="6.47" rerouteNo="0" devices="tripinfo_0.3 routing_0.3" vType="DEFAULT_VEHTYPE" speedFactor="1.09" vaporized=""/>
    <tripinfo id="1.0" depart="0.00" departLane="EC_2" departPos="5.10" departSpeed="9.69" departDelay="0.00" arrival="131.00" arrivalLane="CW_0" arrivalPos="800.00" arrivalSpeed="13.00" duration="131.00" routeLength="1622.10" waitingTime="0.00" waitingCount="0" stopTime="0.00" timeLoss="6.42" rerouteNo="0" devices="tripinfo_1.0 routing_1.0" vType="DEFAULT_VEHTYPE" speedFactor="0.94" vaporized=""/>
    <tripinfo id="1.2" depart="16.00" departLane="EC_1" departPos="5.10" departSpeed="4.30" departDelay="0.00" arrival="137.00" arrivalLane="CW_0" arrivalPos="800.00" arrivalSpeed="14.11" duration="121.00" routeLength="1622.10" waitingTime="0.00" waitingCount="0" stopTime="0.00" timeLoss="6.52" rerouteNo="0" devices="tripinfo_1.2 routing_1.2" vType="DEFAULT_VEHTYPE" speedFactor="1.03" vaporized=""/>
    <tripinfo id="0.2" depart="10.00" departLane="WC_2" departPos="5.10" departSpeed="12.23" departDelay="0.00" arrival="142.00" arrivalLane="CE_0" arrivalPos="800.00" arrivalSpeed="11.88" duration="132.00" routeLength="1622.10" waitingTime="0.00" waitingCount="0" stopTime="0.00" timeLoss="6.60" rerouteNo="0" devices="tripinfo_0.2 routing_0.2" vType="DEFAULT_VEHTYPE" speedFactor="0.94" vaporized=""/>
    <tripinfo id="3.2" depart="18.00" departLane="SC_0" departPos="5.10" departSpeed="5.17" departDelay="0.00" arrival="148.00" arrivalLane="CN_0" arrivalPos="800.00" arrivalSpeed="15.23" duration="130.00" routeLength="1622.10" waitingTime="15.00" waitingCount="1" stopTime="0.00" timeLoss="25.52" rerouteNo="0" devices="tripinfo_3.2 routing_3.2" vType="DEFAULT_VEHTYPE" speedFactor="1.12" vaporized=""/>
    <tripinfo id="3.0" depart="0.00" departLane="SC_1" departPos="5.10" departSpeed="7.01" departDelay="0.00" arrival="150.00" arrivalLane="CN_0" arrivalPos="800.00" arrivalSpeed="13.77" duration="150.00" routeLength="1622.10" waitingTime="30.00" waitingCount="1" stopTime="0.00" timeLoss="42.13" rerouteNo="0" devices="tripinfo_3.0 routing_3.0" vType="DEFAULT_VEHTYPE" speedFactor="1.08" vaporized=""/>
    <tripinfo id="2.3" depart="18.00" departLane="NC_2" departPos="5.10" departSpeed="2.31" departDelay="0.00" arrival="152.00" arrivalLane="CS_0" arrivalPos="800.00" arrivalSpeed="14.43" duration="134.00" routeLength="1622.10" waitingTime="9.00" waitingCount="1" stopTime="0.00" timeLoss="22.40" rerouteNo="0" devices="tripinfo_2.3 routing_2.3" vType="DEFAULT_VEHTYPE" speedFactor="1.05" vaporized=""/>
    <tripinfo id="2.0" depart="0.00" departLane="NC_2" departPos="5.10" departSpeed="7.65" departDelay="0.00" arrival="154.00" arrivalLane="CS_1" arrivalPos="800.00" arrivalSpeed="13.39" duration="154.00" routeLength="1622.10" waitingTime="27.00" waitingCount="1" stopTime="0.00" timeLoss="38.16" rerouteNo="0" devices="tripinfo_2.0 routing_2.0" vType="DEFAULT_VEHTYPE" speedFactor="1.01" vaporized=""/>
    <tripinfo id="2.8" depart="48.00" departLane="NC_2" departPos="5.10" departSpeed="10.88" departDelay="0.00" arrival="154.00" arrivalLane="CS_2" arrivalPos="800.00" arrivalSpeed="14.75" duration="106.00" routeLength="1622.10" waitingTime="0.00" waitingCount="0" stopTime="0.00" timeLoss="4.48" rerouteNo="0" devices="tripinfo_2.8 routing_2.8" vType="DEFAULT_VEHTYPE" speedFactor="1.15" vaporized=""/>
    <tripinfo id="2.9" depart="54.00" departLane="NC_2" departPos="5.10" departSpeed="8.35" departDelay="0.00" arrival="159.00" arrivalLane="CS_1" arrivalPos="800.00" arrivalSpeed="16.25" duration="105.00" routeLength="1622.10" waitingTime="0.00" waitingCount="0" stopTime="0.00" timeLoss="5.08" rerouteNo="0" devices="tripinfo_2.9 routing_2.9" vType="DEFAULT_VEHTYPE" speedFactor="1.17" vaporized=""/>
    <tripinfo id="3.3" depart="27.00" departLane="SC_2" departPos="5.10" departSpeed="9.31" departDelay="0.00" arrival="161.00" arrivalLane="CN_0" arrivalPos="800.00" arrivalSpeed="12.26" duration="134.00" routeLength="1622.10" waitingTime="0.00" waitingCount="0" stopTime="0.00" timeLoss="8.58" rerouteNo="0" devices="tripinfo_3.3 routing_3.3" vType="DEFAULT_VEHTYPE" speedFactor="0.94" vaporized=""/>
    <tripinfo id="3.1" depart="9.00" departLane="SC_0" departPos="5.10" departSpeed="3.78" departDelay="0.00" arrival="165.00" arrivalLane="CN_0" arrivalPos="800.00" arrivalSpeed="11.59" duration="156.00" routeLength="1622.10" waitingTime="11.00" waitingCount="1" stopTime="0.00" timeLoss="24.10" rerouteNo="0" devices="tripinfo_3.1 routing_3.1" vType="DEFAULT_VEHTYPE" speedFactor="0.89" vaporized=""/>
    <tripinfo id="2.5" depart="30.00" departLane="NC_2" departPos="5.10" departSpeed="4.35" departDelay="0.00" arrival="166.00" arrivalLane="CS_0" arrivalPos="800.00" arrivalSpeed="13.27" duration="136.00" routeLength="1622.10" waitingTime="0.00" waitingCount="0" stopTime="0.00" timeLoss="20.59" rerouteNo="0" devices="tripinfo_2.5 routing_2.5" vType="DEFAULT_VEHTYPE" speedFactor="1.02" vaporized=""/>
    <tripinfo id="2.2" depart="12.00" departLane="NC_1" departPos="5.10" departSpeed="4.72" departDelay="0.00" arrival="167.00" arrivalLane="CS_0" arrivalPos="800.00" arrivalSpeed="11.27" duration="155.00" routeLength="1622.10" waitingTime="5.00" waitingCount="1" stopTime="0.00" timeLoss="18.65" rerouteNo="0" devices="tripinfo_2.2 routing_2.2" vType="DEFAULT_VEHTYPE" speedFactor="0.86" vaporized=""/>
    <tripinfo id="2.4" depart="24.00" departLane="NC_1" departPos="5.10" departSpeed="2.95" departDelay="0.00" arrival="169.00" arrivalLane="CS_1" arrivalPos="800.00" arrivalSpeed="11.37" duration="145.00" routeLength="1622.10" waitingTime="0.00" waitingCount="0" stopTime="0.00" timeLoss="11.22" rerouteNo="0" devices="tripinfo_2.4 routing_2.4" vType="DEFAULT_VEHTYPE" speedFactor="0.88" vaporized=""/>
    <tripinfo id="2.1" depart="6.00" departLane="NC_1" departPos="5.10" departSpeed="10.11" departDelay="0.00" arrival="170.00" arrivalLane="CS_0" arrivalPos="800.00" arrivalSpeed="10.51" duration="164.00" routeLength="1622.10" waitingTime="10.00" waitingCount="1" stopTime="0.00" timeLoss="23.15" rerouteNo="0" devices="tripinfo_2.1 routing_2.1" vType="DEFAULT_VEHTYPE" speedFactor="0.83" vaporized=""/>
    <tripinfo id="2.10" depart="60.00" departLane="NC_1" departPos="5.10" departSpeed="7.54" departDelay="0.00" arrival="172.00" arrivalLane="CS_2" arrivalPos="800.00" arrivalSpeed="15.14" duration="112.00" routeLength="1622.10" waitingTime="0.00" waitingCount="0" stopTime="0.00" timeLoss="6.00" rerouteNo="0" devices="tripinfo_2.10 routing_2.10" vType="DEFAULT_VEHTYPE" speedFactor="1.10" vaporized=""/>
    <tripinfo id="2.7" depart="42.00" departLane="NC_1" departPos="5.10" departSpeed="1.13" departDelay="0.00" arrival="174.00" arrivalLane="CS_0" arrivalPos="800.00" arrivalSpeed="12.21" duration="132.00" routeLength="1622.10" waitingTime="0.00" waitingCount="0" stopTime="0.00" timeLoss="8.26" rerouteNo="0" devices="tripinfo_2.7 routing_2.7" vType="DEFAULT_VEHTYPE" speedFactor="0.95" vaporized=""/>
    <tripinfo id="2.6" depart="36.00" departLane="NC_1" departPos="5.10" departSpeed="7.93" departDelay="0.00" arrival="176.00" arrivalLane="CS_0" arrivalPos="800.00" arrivalSpeed="11.98" duration="140.00" routeLength="1622.10" waitingTime="0.00" waitingCount="0" stopTime="0.00" timeLoss="8.25" rerouteNo="0" devices="tripinfo_2.6 routing_2.6" vType="DEFAULT_VEHTYPE" speedFactor="0.89" vaporized=""/>
    <tripinfo id="3.6" depart="54.00" departLane="SC_2" departPos="5.10" departSpeed="5.76" departDelay="0.00" arrival="179.00" arrivalLane="CN_1" arrivalPos="800.00" arrivalSpeed="12.84" duration="125.00" routeLength="1622.10" waitingTime="0.00" waitingCount="0" stopTime="0.00" timeLoss="7.15" rerouteNo="0" devices="tripinfo_3.6 routing_3.6" vType="DEFAULT_VEHTYPE" speedFactor="0.99" vaporized=""/>
    <tripinfo id="3.5" depart="45.00" departLane="SC_2" departPos="5.10" departSpeed="0.61" departDelay="0.00" arrival="180.00" arrivalLane="CN_0" arrivalPos="800.00" arrivalSpeed="12.61" duration="135.00" routeLength="1622.10" waitingTime="0.00" waitingCount="0" stopTime="0.00" timeLoss="9.15" rerouteNo="0" devices="tripinfo_3.5 routing_3.5" vType="DEFAULT_VEHTYPE" speedFactor="0.93" vaporized=""/>
    <tripinfo id="2.11" depart="66.00" departLane="NC_0" departPos="5.10" departSpeed="5.20" departDelay="0.00" arrival="180.00" arrivalLane="CS_0" arrivalPos="800.00" arrivalSpeed="15.05" duration="114.00" routeLength="1622.10" waitingTime="0.00" waitingCount="0" stopTime="0.00" timeLoss="6.24" rerouteNo="0" devices="tripinfo_2.11 routing_2.11" vType="DEFAULT_VEHTYPE" speedFactor="1.09" vaporized=""/>
    <tripinfo id="3.4" depart="36.00" departLane="SC_1" departPos="5.10" departSpeed="10.64" departDelay="0.00" arrival="186.00" arrivalLane="CN_0" arrivalPos="800.00" arrivalSpeed="11.30" duration="150.00" routeLength="1622.10" waitingTime="0.00" waitingCount="0" stopTime="0.00" timeLoss="8.11" rerouteNo="0" devices="tripinfo_3.4 routing_3.4" vType="DEFAULT_VEHTYPE" speedFactor="0.83" vaporized=""/>
    <tripinfo id="0.6" depart="30.00" departLane="WC_1" departPos="5.10" departSpeed="15.04" departDelay="0.00" arrival="191.00" arrivalLane="CE_0" arrivalPos="800.00" arrivalSpeed="15.14" duration="161.00" routeLength="1622.10" waitingTime="51.00" waitingCount="1" stopTime="0.00" timeLoss="60.10" rerouteNo="0" devices="tripinfo_0.6 routing_0.6" vType="DEFAULT_VEHTYPE" speedFactor="1.16" vaporized=""/>
    <tripinfo id="1.6" depart="48.00" departLane="EC_2" departPos="5.10" departSpeed="5.76" departDelay="0.00" arrival="192.00" arrivalLane="CW_0" arrivalPos="800.00" arrivalSpeed="15.53" duration="144.00" routeLength="1622.10" waitingTime="34.00" waitingCount="1" stopTime="0.00" timeLoss="44.80" rerouteNo="0" devices="tripinfo_1.6 routing_1.6" vType="DEFAULT_VEHTYPE" speedFactor="1.18" vaporized=""/>
    <tripinfo id="0.9" depart="45.00" departLane="WC_0" departPos="5.10" departSpeed="3.26" departDelay="0.00" arrival="197.00" arrivalLane="CE_0" arrivalPos="800.00" arrivalSpeed="14.74" duration="152.00" routeLength="1622.10" waitingTime="34.00" waitingCount="1" stopTime="0.00" timeLoss="48.27" rerouteNo="0" devices="tripinfo_0.9 routing_0.9" vType="DEFAULT_VEHTYPE" speedFactor="1.13" vaporized=""/>
    <tripinfo id="0.12" depart="60.00" departLane="WC_1" departPos="5.10" departSpeed="10.24" departDelay="0.00" arrival="198.00" arrivalLane="CE_1" arrivalPos="800.00" arrivalSpeed="15.46" duration="138.00" routeLength="1622.10" waitingTime="24.00" waitingCount="1" stopTime="0.00" timeLoss="38.44" rerouteNo="0" devices="tripinfo_0.12 routing_0.12" vType="DEFAULT_VEHTYPE" speedFactor="1.18" vaporized=""/>
    <tripinfo id="1.4" depart="32.00" departLane="EC_1" departPos="5.10" departSpeed="8.14" departDelay="0.00" arrival="199.00" arrivalLane="CW_0" arrivalPos="800.00" arrivalSpeed="13.92" duration="167.00" routeLength="1622.10" waitingTime="39.00" waitingCount="1" stopTime="0.00" timeLoss="50.63" rerouteNo="0" devices="tripinfo_1.4 routing_1.4" vType="DEFAULT_VEHTYPE" speedFactor="1.01" vaporized=""/>
    <tripinfo id="0.4" depart="20.00" departLane="WC_0" departPos="5.10" departSpeed="1.73" departDelay="0.00" arrival="200.00" arrivalLane="CE_0" arrivalPos="800.00" arrivalSpeed="13.51" duration="180.00" routeLength="1622.10" waitingTime="49.00" waitingCount="1" stopTime="0.00" timeLoss="61.87" rerouteNo="0" devices="tripinfo_0.4 routing_0.4" vType="DEFAULT_VEHTYPE" speedFactor="0.99" vaporized=""/>
    <tripinfo id="1.8" depart="64.00" departLane="EC_0" departPos="5.10" departSpeed="8.21" departDelay="0.00" arrival="201.00" arrivalLane="CW_0" arrivalPos="800.00" arrivalSpeed="14.04" duration="137.00" routeLength="1622.10" waitingTime="12.00" waitingCount="1" stopTime="0.00" timeLoss="23.66" rerouteNo="0" devices="tripinfo_1.8 routing_1.8" vType="DEFAULT_VEHTYPE" speedFactor="1.03" vaporized=""/>
    <tripinfo id="1.9" depart="72.00" departLane="EC_2" departPos="5.10" departSpeed="9.59" departDelay="0.00" arrival="203.00" arrivalLane="CW_1" arrivalPos="800.00" arrivalSpeed="14.01" duration="131.00" routeLength="1622.10" waitingTime="7.00" waitingCount="1" stopTime="0.00" timeLoss="18.82" rerouteNo="0" devices="tripinfo_1.9 routing_1.9" vType="DEFAULT_VEHTYPE" speedFactor="1.04" vaporized=""/>
    <tripinfo id="0.7" depart="35.00" departLane="WC_2" departPos="5.10" departSpeed="12.93" departDelay="0.00" arrival="204.00" arrivalLane="CE_0" arrivalPos="800.00" arrivalSpeed="13.18" duration="169.00" routeLength="1622.10" waitingTime="36.00" waitingCount="1" stopTime="0.00" timeLoss="48.40" rerouteNo="0" devices="tripinfo_0.7 routing_0.7" vType="DEFAULT_VEHTYPE" speedFactor="0.98" vaporized=""/>
    <tripinfo id="1.3" depart="24.00" departLane="EC_2" departPos="5.10" departSpeed="2.87" departDelay="0.00" arrival="206.00" arrivalLane="CW_0" arrivalPos="800.00" arrivalSpeed="11.65" duration="182.00" routeLength="1622.10" waitingTime="40.00" waitingCount="1" stopTime="0.00" timeLoss="55.14" rerouteNo="0" devices="tripinfo_1.3 routing_1.3" vType="DEFAULT_VEHTYPE" speedFactor="0.93" vaporized=""/>
    <tripinfo id="0.5" depart="25.00" departLane="WC_1" departPos="5.10" departSpeed="1.16" departDelay="0.00" arrival="206.00" arrivalLane="CE_0" arrivalPos="800.00" arrivalSpeed="12.59" duration="181.00" routeLength="1622.10" waitingTime="42.00" waitingCount="1" stopTime="0.00" timeLoss="56.18" rerouteNo="0" devices="tripinfo_0.5 routing_0.5" vType="DEFAULT_VEHTYPE" speedFactor="0.94" vaporized=""/>
    <tripinfo id="0.10" depart="50.00" departLane="WC_2" departPos="5.10" departSpeed="8.59" departDelay="0.00" arrival="206.00" arrivalLane="CE_1" arrivalPos="800.00" arrivalSpeed="13.88" duration="156.00" routeLength="1622.10" waitingTime="26.00" waitingCount="1" stopTime="0.00" timeLoss="38.85" rerouteNo="0" devices="tripinfo_0.10 routing_0.10" vType="DEFAULT_VEHTYPE" speedFactor="1.01" vaporized=""/>
    <tripinfo id="0.17" depart="85.00" departLane="WC_1" departPos="5.10" departSpeed="9.02" departDelay="0.00" arrival="206.00" arrivalLane="CE_2" arrivalPos="800.00" arrivalSpeed="14.56" duration="121.00" routeLength="1622.10" waitingTime="0.00" waitingCount="0" stopTime="0.00" timeLoss="13.63" rerouteNo="0" devices="tripinfo_0.17 routing_0.17" vType="DEFAULT_VEHTYPE" speedFactor="1.10" vaporized=""/>
    <tripinfo id="1.7" depart="56.00" departLane="EC_2" departPos="5.10" departSpeed="4.09" departDelay="0.00" arrival="207.00" arrivalLane="CW_1" arrivalPos="800.00" arrivalSpeed="12.88" duration="151.00" routeLength="1622.10" waitingTime="13.00" waitingCount="1" stopTime="0.00" timeLoss="30.88" rerouteNo="0" devices="tripinfo_1.7 routing_1.7" vType="DEFAULT_VEHTYPE" speedFactor="0.97" vaporized=""/>
    <tripinfo id="0.14" depart="70.00" departLane="WC_1" departPos="5.10" departSpeed="1.46" departDelay="0.00" arrival="207.00" arrivalLane="CE_1" arrivalPos="800.00" arrivalSpeed="14.37" duration="137.00" routeLength="1622.10" waitingTime="8.00" waitingCount="1" stopTime="0.00" timeLoss="24.16" rerouteNo="0" devices="tripinfo_0.14 routing_0.14" vType="DEFAULT_VEHTYPE" speedFactor="1.04" vaporized=""/>
    <tripinfo id="1.5" depart="40.00" departLane="EC_1" departPos="5.10" departSpeed="4.00" departDelay="0.00" arrival="208.00" arrivalLane="CW_0" arrivalPos="800.00" arrivalSpeed="12.31" duration="168.00" routeLength="1622.10" waitingTime="26.00" waitingCount="1" stopTime="0.00" timeLoss="40.50" rerouteNo="0" devices="tripinfo_1.5 routing_1.5" vType="DEFAULT_VEHTYPE" speedFactor="0.92" vaporized=""/>
    <tripinfo id="0.11" depart="55.00" departLane="WC_0" departPos="5.10" departSpeed="13.84" departDelay="0.00" arrival="209.00" arrivalLane="CE_1" arrivalPos="800.00" arrivalSpeed="14.11" duration="154.00" routeLength="1622.10" waitingTime="22.00" waitingCount="1" stopTime="0.00" timeLoss="39.18" rerouteNo="0" devices="tripinfo_0.11 routing_0.11" vType="DEFAULT_VEHTYPE" speedFactor="1.02" vaporized=""/>
    <tripinfo id="0.8" depart="40.00" departLane="WC_1" departPos="5.10" departSpeed="2.17" departDelay="0.00" arrival="213.00" arrivalLane="CE_0" arrivalPos="800.00" arrivalSpeed="11.91" duration="173.00" routeLength="1622.10" waitingTime="24.00" waitingCount="1" stopTime="0.00" timeLoss="38.68" rerouteNo="0" devices="tripinfo_0.8 routing_0.8" vType="DEFAULT_VEHTYPE" speedFactor="0.87" vaporized=""/>
    <tripinfo id="0.13" depart="65.00" departLane="WC_1" departPos="5.10" departSpeed="3.94" departDelay="0.00" arrival="213.00" arrivalLane="CE_1" arrivalPos="800.00" arrivalSpeed="12.07" duration="148.00" routeLength="1622.10" waitingTime="9.00" waitingCount="1" stopTime="0.00" timeLoss="25.54" rerouteNo="0" devices="tripinfo_0.13 routing_0.13" vType="DEFAULT_VEHTYPE" speedFactor="0.96" vaporized=""/>
    <tripinfo id="1.11" depart="88.00" departLane="EC_1" departPos="5.10" departSpeed="1.43" departDelay="0.00" arrival="213.00" arrivalLane="CW_0" arrivalPos="800.00" arrivalSpeed="13.86" duration="125.00" routeLength="1622.10" waitingTime="0.00" waitingCount="0" stopTime="0.00" timeLoss="8.14" rerouteNo="0" devices="tripinfo_1.11 routing_1.11" vType="DEFAULT_VEHTYPE" speedFactor="1.00" vaporized=""/>
    <tripinfo id="0.18" depart="90.00" departLane="WC_0" departPos="5.10" departSpeed="8.87" departDelay="0.00" arrival="215.00" arrivalLane="CE_0" arrivalPos="800.00" arrivalSpeed="13.51" duration="125.00" routeLength="1622.10" waitingTime="0.00" waitingCount="0" stopTime="0.00" timeLoss="6.91" rerouteNo="0" devices="tripinfo_0.18 routing_0.18" vType="DEFAULT_VEHTYPE" speedFactor="1.00" vaporized=""/>
    <tripinfo id="0.19" depart="95.00" departLane="WC_0" departPos="5.10" departSpeed="12.61" departDelay="0.00" arrival="215.00" arrivalLane="CE_2" arrivalPos="800.00" arrivalSpeed="13.36" duration="120.00" routeLength="1622.10" waitingTime="0.00" waitingCount="0" stopTime="0.00" timeLoss="5.54" rerouteNo="0" devices="tripinfo_0.19 routing_0.19" vType="DEFAULT_VEHTYPE" speedFactor="1.02" vaporized=""/>
    <tripinfo id="0.15" depart="75.00" departLane="WC_0" departPos="5.10" departSpeed="1.77" departDelay="0.00" arrival="216.00" arrivalLane="CE_0" arrivalPos="800.00" arrivalSpeed="11.82" duration="141.00" routeLength="1622.10" waitingTime="0.00" waitingCount="0" stopTime="0.00" timeLoss="10.86" rerouteNo="0" devices="tripinfo_0.15 routing_0.15" vType="DEFAULT_VEHTYPE" speedFactor="0.90" vaporized=""/>
    <tripinfo id="0.20" depart="100.00" departLane="WC_0" departPos="5.10" departSpeed="12.96" departDelay="0.00" arrival="221.00" arrivalLane="CE_0" arrivalPos="800.00" arrivalSpeed="13.69" duration="121.00" routeLength="1622.10" waitingTime="0.00" waitingCount="0" stopTime="0.00" timeLoss="5.70" rerouteNo="0" devices="tripinfo_0.20 routing_0.20" vType="DEFAULT_VEHTYPE" speedFactor="1.02" vaporized=""/>
    <tripinfo id="1.12" depart="96.00" departLane="EC_0" departPos="5.10" departSpeed="12.17" departDelay="0.00" arrival="223.00" arrivalLane="CW_0" arrivalPos="800.00" arrivalSpeed="12.45" duration="127.00" routeLength="1622.10" waitingTime="0.00" waitingCount="0" stopTime="0.00" timeLoss="6.39" rerouteNo="0" devices="tripinfo_1.12 routing_1.12" vType="DEFAULT_VEHTYPE" speedFactor="0.97" vaporized=""/>
    <tripinfo id="1.10" depart="80.00" departLane="EC_1" departPos="5.10" departSpeed="1.82" departDelay="0.00" arrival="226.00" arrivalLane="CW_0" arrivalPos="800.00" arrivalSpeed="11.51" duration="146.00" routeLength="1622.10" waitingTime="0.00" waitingCount="0" stopTime="0.00" timeLoss="8.86" rerouteNo="0" devices="tripinfo_1.10 routing_1.10" vType="DEFAULT_VEHTYPE" speedFactor="0.85" vaporized=""/>
    <tripinfo id="0.16" depart="80.00" departLane="WC_2" departPos="5.10" departSpeed="4.61" departDelay="0.00" arrival="227.00" arrivalLane="CE_0" arrivalPos="800.00" arrivalSpeed="11.52" duration="147.00" routeLength="1622.10" waitingTime="0.00" waitingCount="0" stopTime="0.00" timeLoss="9.08" rerouteNo="0" devices="tripinfo_0.16 routing_0.16" vType="DEFAULT_VEHTYPE" speedFactor="0.85" vaporized=""/>
    <tripinfo id="3.9" depart="81.00" departLane="SC_0" departPos="5.10" departSpeed="5.59" departDelay="0.00" arrival="236.00" arrivalLane="CN_0" arrivalPos="800.00" arrivalSpeed="15.55" duration="155.00" routeLength="1622.10" waitingTime="44.00" waitingCount="1" stopTime="0.00" timeLoss="54.35" rerouteNo="0" devices="tripinfo_3.9 routing_3.9" vType="DEFAULT_VEHTYPE" speedFactor="1.17" vaporized=""/>
    <tripinfo id="3.10" depart="90.00" departLane="SC_2" departPos="5.10" departSpeed="0.23" departDelay="0.00" arrival="239.00" arrivalLane="CN_0" arrivalPos="800.00" arrivalSpeed="15.50" duration="149.00" routeLength="1622.10" waitingTime="30.00" waitingCount="1" stopTime="0.00" timeLoss="46.41" rerouteNo="0" devices="tripinfo_3.10 routing_3.10" vType="DEFAULT_VEHTYPE" speedFactor="1.14" vaporized=""/>
    <tripinfo id="2.12" depart="72.00" departLane="NC_1" departPos="5.10" departSpeed="4.25" departDelay="0.00" arrival="240.00" arrivalLane="CS_0" arrivalPos="800.00" arrivalSpeed="14.89" duration="168.00" routeLength="1622.10" waitingTime="48.00" waitingCount="1" stopTime="0.00" timeLoss="60.32" rerouteNo="0" devices="tripinfo_2.12 routing_2.12" vType="DEFAULT_VEHTYPE" speedFactor="1.09" vaporized=""/>
    <tripinfo id="2.14" depart="84.00" departLane="NC_2" departPos="5.10" departSpeed="8.32" departDelay="0.00" arrival="244.00" arrivalLane="CS_1" arrivalPos="800.00" arrivalSpeed="13.39" duration="160.00" routeLength="1622.10" waitingTime="33.00" waitingCount="1" stopTime="0.00" timeLoss="45.11" rerouteNo="0" devices="tripinfo_2.14 routing_2.14" vType="DEFAULT_VEHTYPE" speedFactor="1.02" vaporized=""/>
    <tripinfo id="2.16" depart="96.00" departLane="NC_0" departPos="5.10" departSpeed="5.20" departDelay="0.00" arrival="244.00" arrivalLane="CS_0" arrivalPos="800.00" arrivalSpeed="14.96" duration="148.00" routeLength="1622.10" waitingTime="25.00" waitingCount="1" stopTime="0.00" timeLoss="39.44" rerouteNo="0" devices="tripinfo_2.16 routing_2.16" vType="DEFAULT_VEHTYPE" speedFactor="1.08" vaporized=""/>
    <tripinfo id="2.19" depart="114.00" departLane="NC_1" departPos="5.10" departSpeed="11.39" departDelay="0.00" arrival="249.00" arrivalLane="CS_1" arrivalPos="800.00" arrivalSpeed="13.54" duration="135.00" routeLength="1622.10" waitingTime="8.00" waitingCount="1" stopTime="0.00" timeLoss="20.84" rerouteNo="0" devices="tripinfo_2.19 routing_2.19" vType="DEFAULT_VEHTYPE" speedFactor="1.02" vaporized=""/>
    <tripinfo id="2.17" depart="102.00" departLane="NC_2" departPos="5.10" departSpeed="12.46" departDelay="0.00" arrival="250.00" arrivalLane="CS_0" arrivalPos="800.00" arrivalSpeed="12.97" duration="148.00" routeLength="1622.10" waitingTime="16.00" waitingCount="1" stopTime="0.00" timeLoss="28.93" rerouteNo="0" devices="tripinfo_2.17 routing_2.17" vType="DEFAULT_VEHTYPE" speedFactor="0.99" vaporized=""/>
    <tripinfo id="3.14" depart="126.00" departLane="SC_1" departPos="5.10" departSpeed="13.16" departDelay="0.00" arrival="250.00" arrivalLane="CN_0" arrivalPos="800.00" arrivalSpeed="13.92" duration="124.00" routeLength="1622.10" waitingTime="0.00" waitingCount="0" stopTime="0.00" timeLoss="7.78" rerouteNo="0" devices="tripinfo_3.14 routing_3.14" vType="DEFAULT_VEHTYPE" speedFactor="1.01" vaporized=""/>
    <tripinfo id="3.7" depart="63.00" departLane="SC_2" departPos="5.10" departSpeed="8.89" departDelay="0.00" arrival="252.00" arrivalLane="CN_0" arrivalPos="800.00" arrivalSpeed="12.29" duration="189.00" routeLength="1622.10" waitingTime="47.00" waitingCount="1" stopTime="0.00" timeLoss="59.05" rerouteNo="0" devices="tripinfo_3.7 routing_3.7" vType="DEFAULT_VEHTYPE" speedFactor="0.90" vaporized=""/>
    <tripinfo id="2.21" depart="126.00" departLane="NC_1" departPos="5.10" departSpeed="2.60" departDelay="0.00" arrival="253.00" arrivalLane="CS_0" arrivalPos="800.00" arrivalSpeed="13.00" duration="127.00" routeLength="1622.10" waitingTime="0.00" waitingCount="0" stopTime="0.00" timeLoss="8.02" rerouteNo="0" devices="tripinfo_2.21 routing_2.21" vType="DEFAULT_VEHTYPE" speedFactor="0.98" vaporized=""/>
    <tripinfo id="3.8" depart="72.00" departLane="SC_2" departPos="5.10" departSpeed="1.72" departDelay="0.00" arrival="254.00" arrivalLane="CN_0" arrivalPos="800.00" arrivalSpeed="13.76" duration="182.00" routeLength="1622.10" waitingTime="44.00" waitingCount="1" stopTime="0.00" timeLoss="64.28" rerouteNo="0" devices="tripinfo_3.8 routing_3.8" vType="DEFAULT_VEHTYPE" speedFactor="1.00" vaporized=""/>
    <tripinfo id="3.12" depart="108.00" departLane="SC_0" departPos="5.10" departSpeed="10.72" departDelay="0.00" arrival="254.00" arrivalLane="CN_1" arrivalPos="800.00" arrivalSpeed="12.01" duration="146.00" routeLength="1622.10" waitingTime="7.00" waitingCount="1" stopTime="0.00" timeLoss="18.19" rerouteNo="0" devices="tripinfo_3.12 routing_3.12" vType="DEFAULT_VEHTYPE" speedFactor="0.91" vaporized=""/>
    <tripinfo id="2.13" depart="78.00" departLane="NC_0" departPos="5.10" departSpeed="4.53" departDelay="0.00" arrival="256.00" arrivalLane="CS_0" arrivalPos="800.00" arrivalSpeed="11.51" duration="178.00" routeLength="1622.10" waitingTime="31.00" waitingCount="1" stopTime="0.00" timeLoss="44.19" rerouteNo="0" devices="tripinfo_2.13 routing_2.13" vType="DEFAULT_VEHTYPE" speedFactor="0.88" vaporized=""/>
    <tripinfo id="3.11" depart="99.00" departLane="SC_2" departPos="5.10" departSpeed="7.31" departDelay="0.00" arrival="256.00" arrivalLane="CN_0" arrivalPos="800.00" arrivalSpeed="14.99" duration="157.00" routeLength="1622.10" waitingTime="26.00" waitingCount="1" stopTime="0.00" timeLoss="51.73" rerouteNo="0" devices="tripinfo_3.11 routing_3.11" vType="DEFAULT_VEHTYPE" speedFactor="1.12" vaporized=""/>
    <tripinfo id="3.13" depart="117.00" departLane="SC_2" departPos="5.10" departSpeed="1.50" departDelay="0.00" arrival="256.00" arrivalLane="CN_2" arrivalPos="800.00" arrivalSpeed="12.60" duration="139.00" routeLength="1622.10" waitingTime="0.00" waitingCount="0" stopTime="0.00" timeLoss="14.11" rerouteNo="0" devices="tripinfo_3.13 routing_3.13" vType="DEFAULT_VEHTYPE" speedFactor="0.94" vaporized=""/>
    <tripinfo id="2.22" depart="132.00" departLane="NC_2" departPos="5.10" departSpeed="7.90" departDelay="0.00" arrival="256.00" arrivalLane="CS_1" arrivalPos="800.00" arrivalSpeed="12.82" duration="124.00" routeLength="1622.10" waitingTime="0.00" waitingCount="0" stopTime="0.00" timeLoss="6.17" rerouteNo="0" devices="tripinfo_2.22 routing_2.22" vType="DEFAULT_VEHTYPE" speedFactor="1.00" vaporized=""/>
    <tripinfo id="2.15" depart="90.00" departLane="NC_2" departPos="5.10" departSpeed="11.80" departDelay="0.00" arrival="258.00" arrivalLane="CS_0" arrivalPos="800.00" arrivalSpeed="11.95" duration="168.00" routeLength="1622.10" waitingTime="24.00" waitingCount="1" stopTime="0.00" timeLoss="37.16" rerouteNo="0" devices="tripinfo_2.15 routing_2.15" vType="DEFAULT_VEHTYPE" speedFactor="0.90" vaporized=""/>
    <tripinfo id="2.20" depart="120.00" departLane="NC_1" departPos="5.10" departSpeed="4.39" departDelay="0.00" arrival="258.00" arrivalLane="CS_1" arrivalPos="800.00" arrivalSpeed="13.54" duration="138.00" routeLength="1622.10" waitingTime="1.00" waitingCount="1" stopTime="0.00" timeLoss="18.76" rerouteNo="0" devices="tripinfo_2.20 routing_2.20" vType="DEFAULT_VEHTYPE" speedFactor="0.98" vaporized=""/>