<?xml version="1.0" encoding="UTF-8"?>

<!-- generated on 2021-07-26 14:56:20 by Eclipse SUMO GUI Version 1.9.2
<configuration xmlns:xsi="http://www.w3.org/2001/XMLSchema-instance" xsi:noNamespaceSchemaLocation="http://sumo.dlr.de/xsd/sumoConfiguration.xsd">

    <input>
        <net-file value="networks/grid2/net.net.xml"/>
        <route-files value="networks/grid2/random.rou.xml"/>
    </input>

    <output>
        <tripinfo-output value="tripinfo.xml"/>
    </output>

    <processing>
        <time-to-teleport value="-1"/>
    </processing>

    <traci_server>
        <remote-port value="40939"/>
    </traci_server>

</configuration>
-->

<tripinfos xmlns:xsi="http://www.w3.org/2001/XMLSchema-instance" xsi:noNamespaceSchemaLocation="http://sumo.dlr.de/xsd/tripinfo_file.xsd">
    <tripinfo id="30" depart="18.00" departLane="top1B2_0" departPos="5.10" departSpeed="0.00" departDelay="3.00" arrival="56.00" arrivalLane="C2right2_1" arrivalPos="188.00" arrivalSpeed="22.69" duration="38.00" routeLength="593.44" waitingTime="0.00" waitingCount="0" stopTime="0.00" timeLoss="11.12" rerouteNo="0" devices="tripinfo_30" vType="DEFAULT_VEHTYPE" speedFactor="1.18" vaporized=""/>
    <tripinfo id="4" depart="2.00" departLane="bottom0A0_0" departPos="5.10" departSpeed="0.00" departDelay="0.00" arrival="59.00" arrivalLane="B0bottom1_0" arrivalPos="188.00" arrivalSpeed="20.50" duration="57.00" routeLength="565.50" waitingTime="10.00" waitingCount="1" stopTime="0.00" timeLoss="28.07" rerouteNo="0" devices="tripinfo_4" vType="DEFAULT_VEHTYPE" speedFactor="1.03" vaporized=""/>
    <tripinfo id="52" depart="28.00" departLane="bottom1B0_0" departPos="5.10" departSpeed="0.00" departDelay="2.00" arrival="67.00" arrivalLane="A0left0_1" arrivalPos="188.00" arrivalSpeed="19.68" duration="39.00" routeLength="593.44" waitingTime="0.00" waitingCount="0" stopTime="0.00" timeLoss="8.08" rerouteNo="0" devices="tripinfo_52" vType="DEFAULT_VEHTYPE" speedFactor="1.02" vaporized=""/>
    <tripinfo id="8" depart="4.00" departLane="bottom2C0_0" departPos="5.10" departSpeed="0.00" departDelay="0.00" arrival="69.00" arrivalLane="A1left1_0" arrivalPos="188.00" arrivalSpeed="17.87" duration="65.00" routeLength="993.98" waitingTime="0.00" waitingCount="0" stopTime="0.00" timeLoss="10.45" rerouteNo="0" devices="tripinfo_8" vType="DEFAULT_VEHTYPE" speedFactor="0.94" vaporized=""/>
    <tripinfo id="28" depart="16.00" departLane="top0A2_0" departPos="5.10" departSpeed="0.00" departDelay="2.00" arrival="71.00" arrivalLane="C2right2_1" arrivalPos="188.00" arrivalSpeed="22.41" duration="55.00" routeLength="793.71" waitingTime="0.00" waitingCount="0" stopTime="0.00" timeLoss="18.26" rerouteNo="0" devices="tripinfo_28" vType="DEFAULT_VEHTYPE" speedFactor="1.13" vaporized=""/>
    <tripinfo id="6" depart="3.00" departLane="top2C2_0" departPos="5.10" departSpeed="0.00" departDelay="0.00" arrival="74.00" arrivalLane="A2top0_0" arrivalPos="188.00" arrivalSpeed="20.23" duration="71.00" routeLength="765.77" waitingTime="9.00" waitingCount="1" stopTime="0.00" timeLoss="32.77" rerouteNo="0" devices="tripinfo_6" vType="DEFAULT_VEHTYPE" speedFactor="1.05" vaporized=""/>
    <tripinfo id="1" depart="1.00" departLane="top0A2_0" departPos="5.10" departSpeed="0.00" departDelay="0.50" arrival="75.00" arrivalLane="C0right0_1" arrivalPos="188.00" arrivalSpeed="17.96" duration="74.00" routeLength="1194.25" waitingTime="0.00" waitingCount="0" stopTime="0.00" timeLoss="8.87" rerouteNo="0" devices="tripinfo_1" vType="DEFAULT_VEHTYPE" speedFactor="0.94" vaporized=""/>
    <tripinfo id="40" depart="25.00" departLane="right2C2_0" departPos="5.10" departSpeed="0.00" departDelay="5.00" arrival="78.00" arrivalLane="B2top1_0" arrivalPos="188.00" arrivalSpeed="19.58" duration="53.00" routeLength="580.47" waitingTime="4.00" waitingCount="1" stopTime="0.00" timeLoss="23.83" rerouteNo="0" devices="tripinfo_40" vType="DEFAULT_VEHTYPE" speedFactor="1.03" vaporized=""/>
    <tripinfo id="33" depart="20.00" departLane="right0C0_0" departPos="5.10" departSpeed="0.00" departDelay="3.50" arrival="80.00" arrivalLane="A0left0_1" arrivalPos="188.00" arrivalSpeed="22.50" duration="60.00" routeLength="795.71" waitingTime="7.00" waitingCount="1" stopTime="0.00" timeLoss="25.94" rerouteNo="0" devices="tripinfo_33" vType="DEFAULT_VEHTYPE" speedFactor="1.17" vaporized=""/>
    <tripinfo id="79" depart="40.00" departLane="right2C2_0" departPos="5.10" departSpeed="0.00" departDelay="0.50" arrival="80.00" arrivalLane="B2top1_0" arrivalPos="188.00" arrivalSpeed="21.58" duration="40.00" routeLength="580.47" waitingTime="0.00" waitingCount="0" stopTime="0.00" timeLoss="11.86" rerouteNo="0" devices="tripinfo_79" vType="DEFAULT_VEHTYPE" speedFactor="1.09" vaporized=""/>
    <tripinfo id="3" depart="4.00" departLane="top0A2_0" departPos="5.10" departSpeed="0.00" departDelay="2.50" arrival="90.00" arrivalLane="B2top1_1" arrivalPos="188.00" arrivalSpeed="21.51" duration="86.00" routeLength="591.44" waitingTime="36.00" waitingCount="2" stopTime="0.00" timeLoss="56.42" rerouteNo="0" devices="tripinfo_3" vType="DEFAULT_VEHTYPE" speedFactor="1.08" vaporized=""/>
    <tripinfo id="32" depart="17.00" departLane="right0C0_0" departPos="5.10" departSpeed="0.00" departDelay="1.00" arrival="90.00" arrivalLane="B0bottom1_1" arrivalPos="188.00" arrivalSpeed="20.07" duration="73.00" routeLength="593.44" waitingTime="22.00" waitingCount="2" stopTime="0.00" timeLoss="42.44" rerouteNo="0" devices="tripinfo_32" vType="DEFAULT_VEHTYPE" speedFactor="1.01" vaporized=""/>
    <tripinfo id="56" depart="28.00" departLane="left2A2_0" departPos="5.10" departSpeed="0.00" departDelay="0.00" arrival="91.00" arrivalLane="A2top0_1" arrivalPos="188.00" arrivalSpeed="17.24" duration="63.00" routeLength="393.17" waitingTime="29.00" waitingCount="1" stopTime="0.00" timeLoss="39.54" rerouteNo="0" devices="tripinfo_56" vType="DEFAULT_VEHTYPE" speedFactor="0.90" vaporized=""/>
    <tripinfo id="134" depart="67.00" departLane="left2A2_0" departPos="5.10" departSpeed="0.00" departDelay="0.00" arrival="93.00" arrivalLane="A2top0_1" arrivalPos="188.00" arrivalSpeed="23.52" duration="26.00" routeLength="393.17" waitingTime="0.00" waitingCount="0" stopTime="0.00" timeLoss="9.43" rerouteNo="0" devices="tripinfo_134" vType="DEFAULT_VEHTYPE" speedFactor="1.23" vaporized=""/>
    <tripinfo id="16" depart="10.00" departLane="top0A2_0" departPos="5.10" departSpeed="0.00" departDelay="2.00" arrival="94.00" arrivalLane="B2top1_1" arrivalPos="188.00" arrivalSpeed="16.82" duration="84.00" routeLength="591.44" waitingTime="28.00" waitingCount="2" stopTime="0.00" timeLoss="47.28" rerouteNo="0" devices="tripinfo_16" vType="DEFAULT_VEHTYPE" speedFactor="0.88" vaporized=""/>
    <tripinfo id="23" depart="13.00" departLane="top0A2_0" departPos="5.10" departSpeed="0.00" departDelay="1.50" arrival="96.00" arrivalLane="B2top1_1" arrivalPos="188.00" arrivalSpeed="16.92" duration="83.00" routeLength="591.44" waitingTime="25.00" waitingCount="2" stopTime="0.00" timeLoss="46.67" rerouteNo="0" devices="tripinfo_23" vType="DEFAULT_VEHTYPE" speedFactor="0.89" vaporized=""/>
    <tripinfo id="55" depart="28.00" departLane="left1A1_0" departPos="5.10" departSpeed="0.00" departDelay="0.50" arrival="101.00" arrivalLane="B2top1_1" arrivalPos="188.00" arrivalSpeed="19.41" duration="73.00" routeLength="793.71" waitingTime="15.00" waitingCount="1" stopTime="0.00" timeLoss="32.21" rerouteNo="0" devices="tripinfo_55" vType="DEFAULT_VEHTYPE" speedFactor="1.00" vaporized=""/>
    <tripinfo id="47" depart="24.00" departLane="right1C1_0" departPos="5.10" departSpeed="0.00" departDelay="0.50" arrival="103.00" arrivalLane="B0bottom1_1" arrivalPos="188.00" arrivalSpeed="17.49" duration="79.00" routeLength="793.71" waitingTime="13.00" waitingCount="2" stopTime="0.00" timeLoss="33.19" rerouteNo="0" devices="tripinfo_47" vType="DEFAULT_VEHTYPE" speedFactor="0.90" vaporized=""/>
    <tripinfo id="61" depart="31.00" departLane="right1C1_0" departPos="5.10" departSpeed="0.00" departDelay="0.50" arrival="104.00" arrivalLane="C2top2_1" arrivalPos="188.00" arrivalSpeed="21.84" duration="73.00" routeLength="580.47" waitingTime="24.00" waitingCount="1" stopTime="0.00" timeLoss="46.07" rerouteNo="0" devices="tripinfo_61" vType="DEFAULT_VEHTYPE" speedFactor="1.12" vaporized=""/>
    <tripinfo id="89" depart="45.00" departLane="left1A1_0" departPos="5.10" departSpeed="0.00" departDelay="0.50" arrival="104.00" arrivalLane="B0bottom1_0" arrivalPos="188.00" arrivalSpeed="19.84" duration="59.00" routeLength="780.74" waitingTime="3.00" waitingCount="1" stopTime="0.00" timeLoss="20.06" rerouteNo="0" devices="tripinfo_89" vType="DEFAULT_VEHTYPE" speedFactor="1.02" vaporized=""/>
    <tripinfo id="10" depart="5.00" departLane="right1C1_0" departPos="5.10" departSpeed="0.00" departDelay="0.00" arrival="105.00" arrivalLane="C2top2_0" arrivalPos="188.00" arrivalSpeed="20.77" duration="100.00" routeLength="580.47" waitingTime="50.00" waitingCount="2" stopTime="0.00" timeLoss="72.21" rerouteNo="0" devices="tripinfo_10" vType="DEFAULT_VEHTYPE" speedFactor="1.09" vaporized=""/>
    <tripinfo id="41" depart="21.00" departLane="left1A1_0" departPos="5.10" departSpeed="0.00" departDelay="0.50" arrival="105.00" arrivalLane="A0bottom0_0" arrivalPos="188.00" arrivalSpeed="18.79" duration="84.00" routeLength="580.47" waitingTime="33.00" waitingCount="2" stopTime="0.00" timeLoss="53.00" rerouteNo="0" devices="tripinfo_41" vType="DEFAULT_VEHTYPE" speedFactor="0.96" vaporized=""/>
    <tripinfo id="39" depart="20.00" departLane="right1C1_0" departPos="5.10" departSpeed="0.00" departDelay="0.50" arrival="106.00" arrivalLane="C0bottom2_1" arrivalPos="188.00" arrivalSpeed="17.86" duration="86.00" routeLength="593.44" waitingTime="37.00" waitingCount="1" stopTime="0.00" timeLoss="51.03" rerouteNo="0" devices="tripinfo_39" vType="DEFAULT_VEHTYPE" speedFactor="0.90" vaporized=""/>
    <tripinfo id="57" depart="31.00" departLane="left2A2_0" departPos="5.10" departSpeed="0.00" departDelay="2.50" arrival="106.00" arrivalLane="A1left1_0" arrivalPos="188.00" arrivalSpeed="21.73" duration="75.00" routeLength="565.50" waitingTime="29.00" waitingCount="1" stopTime="0.00" timeLoss="48.47" rerouteNo="0" devices="tripinfo_57" vType="DEFAULT_VEHTYPE" speedFactor="1.14" vaporized=""/>
    <tripinfo id="60" depart="31.00" departLane="left1A1_0" departPos="5.10" departSpeed="0.00" departDelay="1.00" arrival="106.00" arrivalLane="C2top2_1" arrivalPos="188.00" arrivalSpeed="21.35" duration="75.00" routeLength="993.98" waitingTime="2.00" waitingCount="1" stopTime="0.00" timeLoss="27.67" rerouteNo="0" devices="tripinfo_60" vType="DEFAULT_VEHTYPE" speedFactor="1.08" vaporized=""/>
    <tripinfo id="14" depart="8.00" departLane="right1C1_0" departPos="5.10" departSpeed="0.00" departDelay="1.00" arrival="107.00" arrivalLane="A0left0_0" arrivalPos="188.00" arrivalSpeed="19.02" duration="99.00" routeLength="979.01" waitingTime="18.00" waitingCount="1" stopTime="0.00" timeLoss="47.75" rerouteNo="0" devices="tripinfo_14" vType="DEFAULT_VEHTYPE" speedFactor="0.99" vaporized=""/>
    <tripinfo id="70" depart="35.00" departLane="right1C1_0" departPos="5.10" departSpeed="0.00" departDelay="0.00" arrival="107.00" arrivalLane="C0bottom2_1" arrivalPos="188.00" arrivalSpeed="20.40" duration="72.00" routeLength="593.44" waitingTime="26.00" waitingCount="1" stopTime="0.00" timeLoss="41.48" rerouteNo="0" devices="tripinfo_70" vType="DEFAULT_VEHTYPE" speedFactor="1.02" vaporized=""/>
    <tripinfo id="53" depart="27.00" departLane="right1C1_0" departPos="5.10" departSpeed="0.00" departDelay="0.50" arrival="109.00" arrivalLane="A0left0_0" arrivalPos="188.00" arrivalSpeed="20.81" duration="82.00" routeLength="979.01" waitingTime="2.00" waitingCount="1" stopTime="0.00" timeLoss="35.00" rerouteNo="0" devices="tripinfo_53" vType="DEFAULT_VEHTYPE" speedFactor="1.10" vaporized=""/>
    <tripinfo id="84" depart="42.00" departLane="right1C1_0" departPos="5.10" departSpeed="0.00" departDelay="0.00" arrival="109.00" arrivalLane="C0bottom2_1" arrivalPos="188.00" arrivalSpeed="22.27" duration="67.00" routeLength="593.44" waitingTime="20.00" waitingCount="1" stopTime="0.00" timeLoss="39.15" rerouteNo="0" devices="tripinfo_84" vType="DEFAULT_VEHTYPE" speedFactor="1.15" vaporized=""/>
    <tripinfo id="81" depart="41.00" departLane="left2A2_0" departPos="5.10" departSpeed="0.00" departDelay="0.50" arrival="110.00" arrivalLane="A1left1_0" arrivalPos="188.00" arrivalSpeed="18.93" duration="69.00" routeLength="565.50" waitingTime="21.00" waitingCount="1" stopTime="0.00" timeLoss="38.20" rerouteNo="0" devices="tripinfo_81" vType="DEFAULT_VEHTYPE" speedFactor="1.00" vaporized=""/>
    <tripinfo id="86" depart="45.00" departLane="right1C1_0" departPos="5.10" departSpeed="0.00" departDelay="2.00" arrival="112.00" arrivalLane="A0left0_0" arrivalPos="188.00" arrivalSpeed="19.67" duration="67.00" routeLength="979.01" waitingTime="0.00" waitingCount="0" stopTime="0.00" timeLoss="16.29" rerouteNo="0" devices="tripinfo_86" vType="DEFAULT_VEHTYPE" speedFactor="1.00" vaporized=""/>
    <tripinfo id="7" depart="4.00" departLane="left0A0_0" departPos="5.10" departSpeed="0.00" departDelay="0.50" arrival="113.00" arrivalLane="C1right1_0" arrivalPos="188.00" arrivalSpeed="16.45" duration="109.00" routeLength="979.01" waitingTime="22.00" waitingCount="2" stopTime="0.00" timeLoss="50.67" rerouteNo="0" devices="tripinfo_7" vType="DEFAULT_VEHTYPE" speedFactor="0.89" vaporized=""/>
    <tripinfo id="19" depart="10.00" departLane="left2A2_0" departPos="5.10" departSpeed="0.00" departDelay="0.50" arrival="113.00" arrivalLane="C0bottom2_0" arrivalPos="188.00" arrivalSpeed="22.94" duration="103.00" routeLength="1181.28" waitingTime="24.00" waitingCount="2" stopTime="0.00" timeLoss="50.91" rerouteNo="0" devices="tripinfo_19" vType="DEFAULT_VEHTYPE" speedFactor="1.16" vaporized=""/>
    <tripinfo id="63" depart="32.00" departLane="right2C2_0" departPos="5.10" departSpeed="0.00" departDelay="0.50" arrival="115.00" arrivalLane="A1left1_0" arrivalPos="188.00" arrivalSpeed="19.28" duration="83.00" routeLength="979.01" waitingTime="0.00" waitingCount="0" stopTime="0.00" timeLoss="30.81" rerouteNo="0" devices="tripinfo_63" vType="DEFAULT_VEHTYPE" speedFactor="0.99" vaporized=""/>
    <tripinfo id="2" depart="1.00" departLane="right2C2_0" departPos="5.10" departSpeed="0.00" departDelay="0.00" arrival="116.00" arrivalLane="B0bottom1_1" arrivalPos="188.00" arrivalSpeed="19.26" duration="115.00" routeLength="993.98" waitingTime="38.00" waitingCount="2" stopTime="0.00" timeLoss="64.58" rerouteNo="0" devices="tripinfo_2" vType="DEFAULT_VEHTYPE" speedFactor="1.01" vaporized=""/>
    <tripinfo id="46" depart="28.00" departLane="right2C2_0" departPos="5.10" departSpeed="0.00" departDelay="5.00" arrival="116.00" arrivalLane="C0bottom2_1" arrivalPos="188.00" arrivalSpeed="18.96" duration="88.00" routeLength="793.71" waitingTime="33.00" waitingCount="1" stopTime="0.00" timeLoss="46.34" rerouteNo="0" devices="tripinfo_46" vType="DEFAULT_VEHTYPE" speedFactor="1.00" vaporized=""/>
    <tripinfo id="15" depart="8.00" departLane="bottom0A0_0" departPos="5.10" departSpeed="0.00" departDelay="0.50" arrival="117.00" arrivalLane="A2top0_1" arrivalPos="188.00" arrivalSpeed="17.94" duration="109.00" routeLength="795.71" waitingTime="53.00" waitingCount="1" stopTime="0.00" timeLoss="65.38" rerouteNo="0" devices="tripinfo_15" vType="DEFAULT_VEHTYPE" speedFactor="0.93" vaporized=""/>
    <tripinfo id="13" depart="7.00" departLane="top0A2_0" departPos="5.10" departSpeed="0.00" departDelay="0.50" arrival="118.00" arrivalLane="A0left0_0" arrivalPos="188.00" arrivalSpeed="21.53" duration="111.00" routeLength="780.74" waitingTime="56.00" waitingCount="1" stopTime="0.00" timeLoss="74.70" rerouteNo="0" devices="tripinfo_13" vType="DEFAULT_VEHTYPE" speedFactor="1.12" vaporized=""/>
    <tripinfo id="21" depart="11.00" departLane="right0C0_0" departPos="5.10" departSpeed="0.00" departDelay="0.50" arrival="119.00" arrivalLane="C2top2_1" arrivalPos="188.00" arrivalSpeed="18.97" duration="108.00" routeLength="780.74" waitingTime="44.00" waitingCount="2" stopTime="0.00" timeLoss="67.66" rerouteNo="0" devices="tripinfo_21" vType="DEFAULT_VEHTYPE" speedFactor="1.01" vaporized=""/>
    <tripinfo id="92" depart="46.00" departLane="left2A2_0" departPos="5.10" departSpeed="0.00" departDelay="0.00" arrival="119.00" arrivalLane="A0bottom0_1" arrivalPos="188.00" arrivalSpeed="15.77" duration="73.00" routeLength="780.74" waitingTime="10.00" waitingCount="1" stopTime="0.00" timeLoss="24.78" rerouteNo="0" devices="tripinfo_92" vType="DEFAULT_VEHTYPE" speedFactor="0.83" vaporized=""/>
    <tripinfo id="17" depart="13.00" departLane="bottom2C0_0" departPos="5.10" departSpeed="0.00" departDelay="4.50" arrival="121.00" arrivalLane="C2right2_0" arrivalPos="188.00" arrivalSpeed="18.28" duration="108.00" routeLength="780.74" waitingTime="48.00" waitingCount="1" stopTime="0.00" timeLoss="65.26" rerouteNo="0" devices="tripinfo_17" vType="DEFAULT_VEHTYPE" speedFactor="0.94" vaporized=""/>
    <tripinfo id="66" depart="36.00" departLane="left0A0_0" departPos="5.10" departSpeed="0.00" departDelay="3.00" arrival="121.00" arrivalLane="C2top2_1" arrivalPos="188.00" arrivalSpeed="17.51" duration="85.00" routeLength="1194.25" waitingTime="0.00" waitingCount="0" stopTime="0.00" timeLoss="17.75" rerouteNo="0" devices="tripinfo_66" vType="DEFAULT_VEHTYPE" speedFactor="0.91" vaporized=""/>
    <tripinfo id="11" depart="10.00" departLane="bottom2C0_0" departPos="5.10" departSpeed="0.00" departDelay="4.50" arrival="123.00" arrivalLane="C2top2_0" arrivalPos="188.00" arrivalSpeed="19.24" duration="113.00" routeLength="795.71" waitingTime="51.00" waitingCount="1" stopTime="0.00" timeLoss="73.77" rerouteNo="0" devices="tripinfo_11" vType="DEFAULT_VEHTYPE" speedFactor="1.03" vaporized=""/>
    <tripinfo id="12" depart="6.00" departLane="right0C0_0" departPos="5.10" departSpeed="0.00" departDelay="0.00" arrival="125.00" arrivalLane="C2right2_0" arrivalPos="188.00" arrivalSpeed="20.61" duration="119.00" routeLength="765.77" waitingTime="53.00" waitingCount="2" stopTime="0.00" timeLoss="80.43" rerouteNo="0" devices="tripinfo_12" vType="DEFAULT_VEHTYPE" speedFactor="1.05" vaporized=""/>
    <tripinfo id="36" depart="22.00" departLane="right2C2_0" departPos="5.10" departSpeed="0.00" departDelay="4.00" arrival="126.00" arrivalLane="A0left0_0" arrivalPos="188.00" arrivalSpeed="19.32" duration="104.00" routeLength="1179.28" waitingTime="7.00" waitingCount="3" stopTime="0.00" timeLoss="41.35" rerouteNo="0" devices="tripinfo_36" vType="DEFAULT_VEHTYPE" speedFactor="0.97" vaporized=""/>
    <tripinfo id="87" depart="44.00" departLane="left0A0_0" departPos="5.10" departSpeed="0.00" departDelay="0.50" arrival="128.00" arrivalLane="C2right2_0" arrivalPos="188.00" arrivalSpeed="20.17" duration="84.00" routeLength="1179.28" waitingTime="0.00" waitingCount="0" stopTime="0.00" timeLoss="25.65" rerouteNo="0" devices="tripinfo_87" vType="DEFAULT_VEHTYPE" speedFactor="1.04" vaporized=""/>
    <tripinfo id="31" depart="16.00" departLane="right2C2_0" departPos="5.10" departSpeed="0.00" departDelay="0.50" arrival="134.00" arrivalLane="C1right1_1" arrivalPos="188.00" arrivalSpeed="22.24" duration="118.00" routeLength="591.44" waitingTime="68.00" waitingCount="2" stopTime="0.00" timeLoss="90.23" rerouteNo="0" devices="tripinfo_31" vType="DEFAULT_VEHTYPE" speedFactor="1.15" vaporized=""/>
    <tripinfo id="126" depart="63.00" departLane="left0A0_0" departPos="5.10" departSpeed="0.00" departDelay="0.00" arrival="135.00" arrivalLane="A1left1_1" arrivalPos="188.00" arrivalSpeed="20.45" duration="72.00" routeLength="591.44" waitingTime="25.00" waitingCount="1" stopTime="0.00" timeLoss="40.72" rerouteNo="0" devices="tripinfo_126" vType="DEFAULT_VEHTYPE" speedFactor="1.03" vaporized=""/>
    <tripinfo id="22" depart="11.00" departLane="right1C1_0" departPos="5.10" departSpeed="0.00" departDelay="0.00" arrival="136.00" arrivalLane="C0right0_1" arrivalPos="188.00" arrivalSpeed="18.67" duration="125.00" routeLength="591.44" waitingTime="72.00" waitingCount="2" stopTime="0.00" timeLoss="92.25" rerouteNo="0" devices="tripinfo_22" vType="DEFAULT_VEHTYPE" speedFactor="0.98" vaporized=""/>
    <tripinfo id="29" depart="15.00" departLane="right1C1_0" departPos="5.10" departSpeed="0.00" departDelay="0.50" arrival="136.00" arrivalLane="A2left2_1" arrivalPos="188.00" arrivalSpeed="18.62" duration="121.00" routeLength="979.01" waitingTime="43.00" waitingCount="2" stopTime="0.00" timeLoss="65.58" rerouteNo="0" devices="tripinfo_29" vType="DEFAULT_VEHTYPE" speedFactor="0.93" vaporized=""/>
    <tripinfo id="114" depart="57.00" departLane="top2C2_0" departPos="5.10" departSpeed="0.00" departDelay="0.00" arrival="136.00" arrivalLane="C1right1_1" arrivalPos="188.00" arrivalSpeed="20.76" duration="79.00" routeLength="593.44" waitingTime="28.00" waitingCount="2" stopTime="0.00" timeLoss="50.75" rerouteNo="0" devices="tripinfo_114" vType="DEFAULT_VEHTYPE" speedFactor="1.10" vaporized=""/>
    <tripinfo id="136" depart="69.00" departLane="left0A0_0" departPos="5.10" departSpeed="0.00" departDelay="1.00" arrival="137.00" arrivalLane="A1left1_1" arrivalPos="188.00" arrivalSpeed="21.14" duration="68.00" routeLength="591.44" waitingTime="22.00" waitingCount="1" stopTime="0.00" timeLoss="39.28" rerouteNo="0" devices="tripinfo_136" vType="DEFAULT_VEHTYPE" speedFactor="1.12" vaporized=""/>
    <tripinfo id="62" depart="34.00" departLane="left1A1_0" departPos="5.10" departSpeed="0.00" departDelay="3.00" arrival="138.00" arrivalLane="A2left2_1" arrivalPos="188.00" arrivalSpeed="20.08" duration="104.00" routeLength="591.44" waitingTime="51.00" waitingCount="2" stopTime="0.00" timeLoss="71.87" rerouteNo="0" devices="tripinfo_62" vType="DEFAULT_VEHTYPE" speedFactor="1.02" vaporized=""/>
    <tripinfo id="153" depart="78.00" departLane="top2C2_0" departPos="5.10" departSpeed="0.00" departDelay="1.50" arrival="139.00" arrivalLane="C0right0_1" arrivalPos="188.00" arrivalSpeed="17.54" duration="61.00" routeLength="793.71" waitingTime="0.00" waitingCount="0" stopTime="0.00" timeLoss="16.04" rerouteNo="0" devices="tripinfo_153" vType="DEFAULT_VEHTYPE" speedFactor="0.93" vaporized=""/>
    <tripinfo id="65" depart="33.00" departLane="left0A0_0" departPos="5.10" departSpeed="0.00" departDelay="0.50" arrival="141.00" arrivalLane="A2left2_1" arrivalPos="188.00" arrivalSpeed="16.37" duration="108.00" routeLength="791.71" waitingTime="35.00" waitingCount="2" stopTime="0.00" timeLoss="60.30" rerouteNo="0" devices="tripinfo_65" vType="DEFAULT_VEHTYPE" speedFactor="0.88" vaporized=""/>
    <tripinfo id="69" depart="35.00" departLane="bottom0A0_0" departPos="5.10" departSpeed="0.00" departDelay="0.50" arrival="143.00" arrivalLane="A2left2_1" arrivalPos="188.00" arrivalSpeed="19.45" duration="108.00" routeLength="793.71" waitingTime="39.00" waitingCount="2" stopTime="0.00" timeLoss="67.22" rerouteNo="0" devices="tripinfo_69" vType="DEFAULT_VEHTYPE" speedFactor="1.02" vaporized=""/>
    <tripinfo id="230" depart="115.00" departLane="top2C2_0" departPos="5.10" departSpeed="0.00" departDelay="0.00" arrival="143.00" arrivalLane="C2right2_1" arrivalPos="188.00" arrivalSpeed="20.06" duration="28.00" routeLength="393.17" waitingTime="0.00" waitingCount="0" stopTime="0.00" timeLoss="7.68" rerouteNo="0" devices="tripinfo_230" vType="DEFAULT_VEHTYPE" speedFactor="1.04" vaporized=""/>
    <tripinfo id="139" depart="71.00" departLane="bottom0A0_0" departPos="5.10" departSpeed="0.00" departDelay="1.50" arrival="145.00" arrivalLane="A2left2_1" arrivalPos="188.00" arrivalSpeed="18.38" duration="74.00" routeLength="793.71" waitingTime="3.00" waitingCount="2" stopTime="0.00" timeLoss="30.45" rerouteNo="0" devices="tripinfo_139" vType="DEFAULT_VEHTYPE" speedFactor="0.95" vaporized=""/>
    <tripinfo id="119" depart="66.00" departLane="bottom1B0_0" departPos="5.10" departSpeed="0.00" departDelay="6.50" arrival="146.00" arrivalLane="A2left2_1" arrivalPos="188.00" arrivalSpeed="20.17" duration="80.00" routeLength="993.98" waitingTime="10.00" waitingCount="1" stopTime="0.00" timeLoss="32.05" rerouteNo="0" devices="tripinfo_119" vType="DEFAULT_VEHTYPE" speedFactor="1.07" vaporized=""/>
    <tripinfo id="101" depart="53.00" departLane="top1B2_0" departPos="5.10" departSpeed="0.00" departDelay="2.50" arrival="147.00" arrivalLane="C2right2_1" arrivalPos="188.00" arrivalSpeed="17.86" duration="94.00" routeLength="593.44" waitingTime="50.00" waitingCount="1" stopTime="0.00" timeLoss="61.46" rerouteNo="0" devices="tripinfo_101" vType="DEFAULT_VEHTYPE" speedFactor="0.96" vaporized=""/>
    <tripinfo id="20" depart="12.00" departLane="top1B2_0" departPos="5.10" departSpeed="0.00" departDelay="2.00" arrival="149.00" arrivalLane="A0left0_1" arrivalPos="188.00" arrivalSpeed="19.68" duration="137.00" routeLength="981.01" waitingTime="57.00" waitingCount="3" stopTime="0.00" timeLoss="88.17" rerouteNo="0" devices="tripinfo_20" vType="DEFAULT_VEHTYPE" speedFactor="1.02" vaporized=""/>
    <tripinfo id="76" depart="40.00" departLane="left1A1_0" departPos="5.10" departSpeed="0.00" departDelay="2.00" arrival="149.00" arrivalLane="C1right1_0" arrivalPos="188.00" arrivalSpeed="19.51" duration="109.00" routeLength="795.71" waitingTime="56.00" waitingCount="1" stopTime="0.00" timeLoss="70.46" rerouteNo="0" devices="tripinfo_76" vType="DEFAULT_VEHTYPE" speedFactor="1.03" vaporized=""/>
    <tripinfo id="121" depart="61.00" departLane="right2C2_0" departPos="5.10" departSpeed="0.00" departDelay="0.50" arrival="149.00" arrivalLane="C2top2_0" arrivalPos="188.00" arrivalSpeed="21.36" duration="88.00" routeLength="380.20" waitingTime="56.00" waitingCount="1" stopTime="0.00" timeLoss="69.42" rerouteNo="0" devices="tripinfo_121" vType="DEFAULT_VEHTYPE" speedFactor="1.10" vaporized=""/>
    <tripinfo id="130" depart="69.00" departLane="bottom1B0_0" departPos="5.10" departSpeed="0.00" departDelay="4.00" arrival="149.00" arrivalLane="C0right0_0" arrivalPos="188.00" arrivalSpeed="20.17" duration="80.00" routeLength="580.47" waitingTime="24.00" waitingCount="2" stopTime="0.00" timeLoss="50.59" rerouteNo="0" devices="tripinfo_130" vType="DEFAULT_VEHTYPE" speedFactor="1.03" vaporized=""/>
    <tripinfo id="18" depart="9.00" departLane="top1B2_0" departPos="5.10" departSpeed="0.00" departDelay="0.00" arrival="150.00" arrivalLane="A1left1_0" arrivalPos="188.00" arrivalSpeed="18.60" duration="141.00" routeLength="780.74" waitingTime="79.00" waitingCount="2" stopTime="0.00" timeLoss="98.25" rerouteNo="0" devices="tripinfo_18" vType="DEFAULT_VEHTYPE" speedFactor="0.94" vaporized=""/>
    <tripinfo id="26" depart="15.00" departLane="top1B2_0" departPos="5.10" departSpeed="0.00" departDelay="2.00" arrival="150.00" arrivalLane="A2top0_0" arrivalPos="188.00" arrivalSpeed="17.60" duration="135.00" routeLength="565.50" waitingTime="85.00" waitingCount="2" stopTime="0.00" timeLoss="102.17" rerouteNo="0" devices="tripinfo_26" vType="DEFAULT_VEHTYPE" speedFactor="0.92" vaporized=""/>
    <tripinfo id="140" depart="70.00" departLane="top1B2_0" departPos="5.10" departSpeed="0.00" departDelay="0.00" arrival="150.00" arrivalLane="A1left1_1" arrivalPos="188.00" arrivalSpeed="21.68" duration="80.00" routeLength="780.74" waitingTime="12.00" waitingCount="2" stopTime="0.00" timeLoss="43.63" rerouteNo="0" devices="tripinfo_140" vType="DEFAULT_VEHTYPE" speedFactor="1.11" vaporized=""/>
    <tripinfo id="24" depart="12.00" departLane="left0A0_0" departPos="5.10" departSpeed="0.00" departDelay="0.00" arrival="151.00" arrivalLane="C0bottom2_0" arrivalPos="188.00" arrivalSpeed="15.54" duration="139.00" routeLength="780.74" waitingTime="72.00" waitingCount="2" stopTime="0.00" timeLoss="90.41" rerouteNo="0" devices="tripinfo_24" vType="DEFAULT_VEHTYPE" speedFactor="0.83" vaporized=""/>
    <tripinfo id="35" depart="18.00" departLane="bottom1B0_0" departPos="5.10" departSpeed="0.00" departDelay="0.50" arrival="151.00" arrivalLane="C1right1_1" arrivalPos="188.00" arrivalSpeed="20.00" duration="133.00" routeLength="780.74" waitingTime="70.00" waitingCount="2" stopTime="0.00" timeLoss="93.74" rerouteNo="0" devices="tripinfo_35" vType="DEFAULT_VEHTYPE" speedFactor="1.02" vaporized=""/>
    <tripinfo id="165" depart="83.00" departLane="top1B2_0" departPos="5.10" departSpeed="0.00" departDelay="0.50" arrival="151.00" arrivalLane="C0right0_1" arrivalPos="188.00" arrivalSpeed="17.58" duration="68.00" routeLength="993.98" waitingTime="0.00" waitingCount="0" stopTime="0.00" timeLoss="11.42" rerouteNo="0" devices="tripinfo_165" vType="DEFAULT_VEHTYPE" speedFactor="0.91" vaporized=""/>
    <tripinfo id="42" depart="21.00" departLane="bottom1B0_0" departPos="5.10" departSpeed="0.00" departDelay="0.00" arrival="152.00" arrivalLane="A1left1_1" arrivalPos="188.00" arrivalSpeed="21.50" duration="131.00" routeLength="793.71" waitingTime="64.00" waitingCount="2" stopTime="0.00" timeLoss="92.77" rerouteNo="0" devices="tripinfo_42" vType="DEFAULT_VEHTYPE" speedFactor="1.09" vaporized=""/>
    <tripinfo id="85" depart="45.00" departLane="bottom1B0_0" departPos="5.10" departSpeed="0.00" departDelay="2.50" arrival="152.00" arrivalLane="C0bottom2_0" arrivalPos="188.00" arrivalSpeed="19.26" duration="107.00" routeLength="565.50" waitingTime="48.00" waitingCount="3" stopTime="0.00" timeLoss="75.68" rerouteNo="0" devices="tripinfo_85" vType="DEFAULT_VEHTYPE" speedFactor="0.98" vaporized=""/>
    <tripinfo id="93" depart="51.00" departLane="bottom1B0_0" departPos="5.10" departSpeed="0.00" departDelay="4.50" arrival="152.00" arrivalLane="A0left0_1" arrivalPos="188.00" arrivalSpeed="18.42" duration="101.00" routeLength="593.44" waitingTime="51.00" waitingCount="1" stopTime="0.00" timeLoss="66.98" rerouteNo="0" devices="tripinfo_93" vType="DEFAULT_VEHTYPE" speedFactor="0.92" vaporized=""/>