<?xml version="1.0" encoding="UTF-8"?>

<!-- generated on 2021-07-22 21:59:02 by Eclipse SUMO GUI Version 1.9.2
<configuration xmlns:xsi="http://www.w3.org/2001/XMLSchema-instance" xsi:noNamespaceSchemaLocation="http://sumo.dlr.de/xsd/sumoConfiguration.xsd">

    <input>
        <net-file value="../networks/grid2/net.net.xml"/>
        <route-files value="../networks/grid2/code.rou.xml"/>
    </input>

    <output>
        <tripinfo-output value="tripinfo.xml"/>
    </output>

    <traci_server>
        <remote-port value="41757"/>
    </traci_server>

</configuration>
-->

<tripinfos xmlns:xsi="http://www.w3.org/2001/XMLSchema-instance" xsi:noNamespaceSchemaLocation="http://sumo.dlr.de/xsd/tripinfo_file.xsd">
    <tripinfo id="28" depart="14.00" departLane="bottom2C0_0" departPos="5.10" departSpeed="0.00" departDelay="0.00" arrival="42.00" arrivalLane="C0right0_0" arrivalPos="188.00" arrivalSpeed="22.04" duration="28.00" routeLength="380.20" waitingTime="0.00" waitingCount="0" stopTime="0.00" timeLoss="9.85" rerouteNo="0" devices="tripinfo_28" vType="DEFAULT_VEHTYPE" speedFactor="1.13" vaporized=""/>
    <tripinfo id="6" depart="3.00" departLane="bottom0A0_0" departPos="5.10" departSpeed="0.00" departDelay="0.00" arrival="44.00" arrivalLane="A1left1_1" arrivalPos="188.00" arrivalSpeed="19.89" duration="41.00" routeLength="593.44" waitingTime="0.00" waitingCount="0" stopTime="0.00" timeLoss="11.39" rerouteNo="0" devices="tripinfo_6" vType="DEFAULT_VEHTYPE" speedFactor="1.05" vaporized=""/>
    <tripinfo id="22" depart="11.00" departLane="bottom0A0_0" departPos="5.10" departSpeed="0.00" departDelay="0.00" arrival="50.00" arrivalLane="A1left1_1" arrivalPos="188.00" arrivalSpeed="18.42" duration="39.00" routeLength="593.44" waitingTime="0.00" waitingCount="0" stopTime="0.00" timeLoss="7.13" rerouteNo="0" devices="tripinfo_22" vType="DEFAULT_VEHTYPE" speedFactor="0.98" vaporized=""/>
    <tripinfo id="13" depart="7.00" departLane="bottom1B0_0" departPos="5.10" departSpeed="0.00" departDelay="0.50" arrival="56.00" arrivalLane="A0left0_1" arrivalPos="188.00" arrivalSpeed="22.04" duration="49.00" routeLength="593.44" waitingTime="4.00" waitingCount="1" stopTime="0.00" timeLoss="21.18" rerouteNo="0" devices="tripinfo_13" vType="DEFAULT_VEHTYPE" speedFactor="1.12" vaporized=""/>
    <tripinfo id="17999" depart="5.00" departLane="right2C2_0" departPos="20.10" departSpeed="0.00" departDelay="4.00" arrival="60.00" arrivalLane="C2top2_0" arrivalPos="188.00" arrivalSpeed="19.47" duration="55.00" routeLength="365.20" waitingTime="23.00" waitingCount="1" stopTime="0.00" timeLoss="35.42" rerouteNo="0" devices="tripinfo_17999" vType="emergency" speedFactor="1.00" vaporized=""/>
    <tripinfo id="65" depart="33.00" departLane="left0A0_0" departPos="5.10" departSpeed="0.00" departDelay="0.50" arrival="67.00" arrivalLane="A0bottom0_0" arrivalPos="188.00" arrivalSpeed="17.03" duration="34.00" routeLength="380.20" waitingTime="0.00" waitingCount="0" stopTime="0.00" timeLoss="11.63" rerouteNo="0" devices="tripinfo_65" vType="DEFAULT_VEHTYPE" speedFactor="0.88" vaporized=""/>
    <tripinfo id="12" depart="6.00" departLane="top2C2_0" departPos="5.10" departSpeed="0.00" departDelay="0.00" arrival="73.00" arrivalLane="A2top0_0" arrivalPos="188.00" arrivalSpeed="20.49" duration="67.00" routeLength="765.77" waitingTime="8.00" waitingCount="1" stopTime="0.00" timeLoss="28.42" rerouteNo="0" devices="tripinfo_12" vType="DEFAULT_VEHTYPE" speedFactor="1.05" vaporized=""/>
    <tripinfo id="51" depart="26.00" departLane="right2C2_0" departPos="5.10" departSpeed="0.00" departDelay="0.50" arrival="75.00" arrivalLane="B2top1_0" arrivalPos="188.00" arrivalSpeed="22.57" duration="49.00" routeLength="580.47" waitingTime="3.00" waitingCount="1" stopTime="0.00" timeLoss="23.15" rerouteNo="0" devices="tripinfo_51" vType="DEFAULT_VEHTYPE" speedFactor="1.17" vaporized=""/>
    <tripinfo id="52" depart="26.00" departLane="left0A0_0" departPos="5.10" departSpeed="0.00" departDelay="0.00" arrival="87.00" arrivalLane="C0bottom2_0" arrivalPos="188.00" arrivalSpeed="19.67" duration="61.00" routeLength="780.74" waitingTime="2.00" waitingCount="1" stopTime="0.00" timeLoss="20.55" rerouteNo="0" devices="tripinfo_52" vType="DEFAULT_VEHTYPE" speedFactor="1.02" vaporized=""/>
    <tripinfo id="70" depart="35.00" departLane="left2A2_0" departPos="5.10" departSpeed="0.00" departDelay="0.00" arrival="89.00" arrivalLane="B2top1_1" arrivalPos="188.00" arrivalSpeed="19.28" duration="54.00" routeLength="593.44" waitingTime="12.00" waitingCount="1" stopTime="0.00" timeLoss="23.93" rerouteNo="0" devices="tripinfo_70" vType="DEFAULT_VEHTYPE" speedFactor="1.02" vaporized=""/>
    <tripinfo id="44" depart="22.00" departLane="bottom1B0_0" departPos="5.10" departSpeed="0.00" departDelay="0.00" arrival="90.00" arrivalLane="A0bottom0_1" arrivalPos="188.00" arrivalSpeed="19.85" duration="68.00" routeLength="591.44" waitingTime="21.00" waitingCount="1" stopTime="0.00" timeLoss="36.61" rerouteNo="0" devices="tripinfo_44" vType="DEFAULT_VEHTYPE" speedFactor="1.04" vaporized=""/>
    <tripinfo id="54" depart="27.00" departLane="left2A2_0" departPos="5.10" departSpeed="0.00" departDelay="0.00" arrival="90.00" arrivalLane="C2top2_1" arrivalPos="188.00" arrivalSpeed="19.95" duration="63.00" routeLength="793.71" waitingTime="3.00" waitingCount="1" stopTime="0.00" timeLoss="22.11" rerouteNo="0" devices="tripinfo_54" vType="DEFAULT_VEHTYPE" speedFactor="1.00" vaporized=""/>
    <tripinfo id="33" depart="17.00" departLane="bottom2C0_0" departPos="5.10" departSpeed="0.00" departDelay="0.50" arrival="91.00" arrivalLane="A0bottom0_1" arrivalPos="188.00" arrivalSpeed="23.09" duration="74.00" routeLength="791.71" waitingTime="17.00" waitingCount="1" stopTime="0.00" timeLoss="37.86" rerouteNo="0" devices="tripinfo_33" vType="DEFAULT_VEHTYPE" speedFactor="1.17" vaporized=""/>
    <tripinfo id="76" depart="41.00" departLane="left2A2_0" departPos="5.10" departSpeed="0.00" departDelay="3.00" arrival="91.00" arrivalLane="B2top1_1" arrivalPos="188.00" arrivalSpeed="19.58" duration="50.00" routeLength="593.44" waitingTime="7.00" waitingCount="1" stopTime="0.00" timeLoss="20.12" rerouteNo="0" devices="tripinfo_76" vType="DEFAULT_VEHTYPE" speedFactor="1.03" vaporized=""/>
    <tripinfo id="98" depart="49.00" departLane="right0C0_0" departPos="5.10" departSpeed="0.00" departDelay="0.00" arrival="94.00" arrivalLane="A0bottom0_1" arrivalPos="188.00" arrivalSpeed="21.41" duration="45.00" routeLength="793.71" waitingTime="0.00" waitingCount="0" stopTime="0.00" timeLoss="8.48" rerouteNo="0" devices="tripinfo_98" vType="DEFAULT_VEHTYPE" speedFactor="1.12" vaporized=""/>
    <tripinfo id="17" depart="9.00" departLane="left1A1_0" departPos="5.10" departSpeed="0.00" departDelay="0.50" arrival="102.00" arrivalLane="B2top1_1" arrivalPos="188.00" arrivalSpeed="18.61" duration="93.00" routeLength="793.71" waitingTime="30.00" waitingCount="2" stopTime="0.00" timeLoss="49.34" rerouteNo="0" devices="tripinfo_17" vType="DEFAULT_VEHTYPE" speedFactor="0.94" vaporized=""/>
    <tripinfo id="27" depart="17.00" departLane="right1C1_0" departPos="5.10" departSpeed="0.00" departDelay="3.50" arrival="102.00" arrivalLane="C0bottom2_1" arrivalPos="188.00" arrivalSpeed="18.42" duration="85.00" routeLength="593.44" waitingTime="41.00" waitingCount="1" stopTime="0.00" timeLoss="52.50" rerouteNo="0" devices="tripinfo_27" vType="DEFAULT_VEHTYPE" speedFactor="0.95" vaporized=""/>
    <tripinfo id="11" depart="6.00" departLane="left1A1_0" departPos="5.10" departSpeed="0.00" departDelay="0.50" arrival="105.00" arrivalLane="A0left0_0" arrivalPos="188.00" arrivalSpeed="19.42" duration="99.00" routeLength="565.50" waitingTime="47.00" waitingCount="2" stopTime="0.00" timeLoss="68.97" rerouteNo="0" devices="tripinfo_11" vType="DEFAULT_VEHTYPE" speedFactor="1.03" vaporized=""/>
    <tripinfo id="41" depart="23.00" departLane="right1C1_0" departPos="5.10" departSpeed="0.00" departDelay="2.50" arrival="105.00" arrivalLane="C2right2_0" arrivalPos="188.00" arrivalSpeed="18.60" duration="82.00" routeLength="565.50" waitingTime="28.00" waitingCount="2" stopTime="0.00" timeLoss="49.96" rerouteNo="0" devices="tripinfo_41" vType="DEFAULT_VEHTYPE" speedFactor="0.96" vaporized=""/>
    <tripinfo id="92" depart="46.00" departLane="left1A1_0" departPos="5.10" departSpeed="0.00" departDelay="0.00" arrival="105.00" arrivalLane="A2top0_1" arrivalPos="188.00" arrivalSpeed="16.30" duration="59.00" routeLength="593.44" waitingTime="11.00" waitingCount="1" stopTime="0.00" timeLoss="21.51" rerouteNo="0" devices="tripinfo_92" vType="DEFAULT_VEHTYPE" speedFactor="0.83" vaporized=""/>
    <tripinfo id="119" depart="61.00" departLane="right1C1_0" departPos="5.10" departSpeed="0.00" departDelay="1.50" arrival="105.00" arrivalLane="C0bottom2_1" arrivalPos="188.00" arrivalSpeed="20.92" duration="44.00" routeLength="593.44" waitingTime="0.00" waitingCount="0" stopTime="0.00" timeLoss="15.27" rerouteNo="0" devices="tripinfo_119" vType="DEFAULT_VEHTYPE" speedFactor="1.07" vaporized=""/>
    <tripinfo id="7" depart="4.00" departLane="right1C1_0" departPos="5.10" departSpeed="0.00" departDelay="0.50" arrival="106.00" arrivalLane="B2top1_0" arrivalPos="188.00" arrivalSpeed="17.42" duration="102.00" routeLength="780.74" waitingTime="34.00" waitingCount="2" stopTime="0.00" timeLoss="56.50" rerouteNo="0" devices="tripinfo_7" vType="DEFAULT_VEHTYPE" speedFactor="0.89" vaporized=""/>
    <tripinfo id="103" depart="52.00" departLane="left1A1_0" departPos="5.10" departSpeed="0.00" departDelay="0.50" arrival="106.00" arrivalLane="A0bottom0_1" arrivalPos="188.00" arrivalSpeed="18.95" duration="54.00" routeLength="580.47" waitingTime="4.00" waitingCount="1" stopTime="0.00" timeLoss="22.22" rerouteNo="0" devices="tripinfo_103" vType="DEFAULT_VEHTYPE" speedFactor="0.95" vaporized=""/>
    <tripinfo id="0" depart="0.00" departLane="right1C1_0" departPos="5.10" departSpeed="0.00" departDelay="0.00" arrival="107.00" arrivalLane="A0bottom0_1" arrivalPos="188.00" arrivalSpeed="20.30" duration="107.00" routeLength="993.98" waitingTime="29.00" waitingCount="2" stopTime="0.00" timeLoss="58.75" rerouteNo="0" devices="tripinfo_0" vType="DEFAULT_VEHTYPE" speedFactor="1.06" vaporized=""/>
    <tripinfo id="135" depart="68.00" departLane="top0A2_0" departPos="5.10" departSpeed="0.00" departDelay="0.50" arrival="109.00" arrivalLane="A2left2_0" arrivalPos="188.00" arrivalSpeed="20.09" duration="41.00" routeLength="380.20" waitingTime="6.00" waitingCount="1" stopTime="0.00" timeLoss="21.32" rerouteNo="0" devices="tripinfo_135" vType="DEFAULT_VEHTYPE" speedFactor="1.01" vaporized=""/>
    <tripinfo id="59" depart="30.00" departLane="right1C1_0" departPos="5.10" departSpeed="0.00" departDelay="0.50" arrival="110.00" arrivalLane="A0left0_0" arrivalPos="188.00" arrivalSpeed="18.65" duration="80.00" routeLength="979.01" waitingTime="0.00" waitingCount="0" stopTime="0.00" timeLoss="27.21" rerouteNo="0" devices="tripinfo_59" vType="DEFAULT_VEHTYPE" speedFactor="0.97" vaporized=""/>
    <tripinfo id="72" depart="38.00" departLane="left2A2_0" departPos="5.10" departSpeed="0.00" departDelay="2.00" arrival="110.00" arrivalLane="A1left1_0" arrivalPos="188.00" arrivalSpeed="17.61" duration="72.00" routeLength="565.50" waitingTime="21.00" waitingCount="1" stopTime="0.00" timeLoss="39.88" rerouteNo="0" devices="tripinfo_72" vType="DEFAULT_VEHTYPE" speedFactor="0.94" vaporized=""/>
    <tripinfo id="83" depart="46.00" departLane="bottom2C0_0" departPos="5.10" departSpeed="0.00" departDelay="4.50" arrival="110.00" arrivalLane="C0right0_0" arrivalPos="188.00" arrivalSpeed="18.45" duration="64.00" routeLength="380.20" waitingTime="29.00" waitingCount="1" stopTime="0.00" timeLoss="42.85" rerouteNo="0" devices="tripinfo_83" vType="DEFAULT_VEHTYPE" speedFactor="0.97" vaporized=""/>
    <tripinfo id="122" depart="62.00" departLane="bottom2C0_0" departPos="5.10" departSpeed="0.00" departDelay="1.00" arrival="111.00" arrivalLane="C0right0_0" arrivalPos="188.00" arrivalSpeed="20.33" duration="49.00" routeLength="380.20" waitingTime="15.00" waitingCount="1" stopTime="0.00" timeLoss="29.39" rerouteNo="0" devices="tripinfo_122" vType="DEFAULT_VEHTYPE" speedFactor="1.03" vaporized=""/>
    <tripinfo id="102" depart="56.00" departLane="left2A2_0" departPos="5.10" departSpeed="0.00" departDelay="5.00" arrival="113.00" arrivalLane="A1left1_0" arrivalPos="188.00" arrivalSpeed="18.84" duration="57.00" routeLength="565.50" waitingTime="7.00" waitingCount="1" stopTime="0.00" timeLoss="25.63" rerouteNo="0" devices="tripinfo_102" vType="DEFAULT_VEHTYPE" speedFactor="0.97" vaporized=""/>
    <tripinfo id="9" depart="5.00" departLane="top0A2_0" departPos="5.10" departSpeed="0.00" departDelay="0.50" arrival="118.00" arrivalLane="A0bottom0_0" arrivalPos="188.00" arrivalSpeed="16.57" duration="113.00" routeLength="795.71" waitingTime="54.00" waitingCount="1" stopTime="0.00" timeLoss="66.55" rerouteNo="0" devices="tripinfo_9" vType="DEFAULT_VEHTYPE" speedFactor="0.86" vaporized=""/>
    <tripinfo id="89" depart="47.00" departLane="left2A2_0" departPos="5.10" departSpeed="0.00" departDelay="2.50" arrival="118.00" arrivalLane="B0bottom1_1" arrivalPos="188.00" arrivalSpeed="20.14" duration="71.00" routeLength="981.01" waitingTime="3.00" waitingCount="1" stopTime="0.00" timeLoss="21.49" rerouteNo="0" devices="tripinfo_89" vType="DEFAULT_VEHTYPE" speedFactor="1.02" vaporized=""/>
    <tripinfo id="4" depart="2.00" departLane="left2A2_0" departPos="5.10" departSpeed="0.00" departDelay="0.00" arrival="120.00" arrivalLane="A0bottom0_0" arrivalPos="188.00" arrivalSpeed="19.57" duration="118.00" routeLength="780.74" waitingTime="48.00" waitingCount="2" stopTime="0.00" timeLoss="78.85" rerouteNo="0" devices="tripinfo_4" vType="DEFAULT_VEHTYPE" speedFactor="1.03" vaporized=""/>
    <tripinfo id="20" depart="10.00" departLane="right2C2_0" departPos="5.10" departSpeed="0.00" departDelay="0.00" arrival="120.00" arrivalLane="A0bottom0_1" arrivalPos="188.00" arrivalSpeed="20.08" duration="110.00" routeLength="1194.25" waitingTime="17.00" waitingCount="2" stopTime="0.00" timeLoss="50.04" rerouteNo="0" devices="tripinfo_20" vType="DEFAULT_VEHTYPE" speedFactor="1.02" vaporized=""/>
    <tripinfo id="165" depart="89.00" departLane="top0A2_0" departPos="5.10" departSpeed="0.00" departDelay="6.50" arrival="120.00" arrivalLane="A2left2_0" arrivalPos="188.00" arrivalSpeed="17.58" duration="31.00" routeLength="380.20" waitingTime="0.00" waitingCount="0" stopTime="0.00" timeLoss="8.95" rerouteNo="0" devices="tripinfo_165" vType="DEFAULT_VEHTYPE" speedFactor="0.91" vaporized=""/>
    <tripinfo id="87" depart="44.00" departLane="top0A2_0" departPos="5.10" departSpeed="0.00" departDelay="0.50" arrival="121.00" arrivalLane="A1left1_0" arrivalPos="188.00" arrivalSpeed="19.89" duration="77.00" routeLength="580.47" waitingTime="25.00" waitingCount="2" stopTime="0.00" timeLoss="47.82" rerouteNo="0" devices="tripinfo_87" vType="DEFAULT_VEHTYPE" speedFactor="1.04" vaporized=""/>
    <tripinfo id="16" depart="8.00" departLane="right0C0_0" departPos="5.10" departSpeed="0.00" departDelay="0.00" arrival="122.00" arrivalLane="C2top2_1" arrivalPos="188.00" arrivalSpeed="16.29" duration="114.00" routeLength="780.74" waitingTime="46.00" waitingCount="2" stopTime="0.00" timeLoss="68.46" rerouteNo="0" devices="tripinfo_16" vType="DEFAULT_VEHTYPE" speedFactor="0.88" vaporized=""/>
    <tripinfo id="30" depart="15.00" departLane="top2C2_0" departPos="5.10" departSpeed="0.00" departDelay="0.00" arrival="122.00" arrivalLane="C0bottom2_0" arrivalPos="188.00" arrivalSpeed="23.42" duration="107.00" routeLength="795.71" waitingTime="58.00" waitingCount="1" stopTime="0.00" timeLoss="72.57" rerouteNo="0" devices="tripinfo_30" vType="DEFAULT_VEHTYPE" speedFactor="1.18" vaporized=""/>
    <tripinfo id="71" depart="36.00" departLane="left0A0_0" departPos="5.10" departSpeed="0.00" departDelay="0.50" arrival="123.00" arrivalLane="C2right2_0" arrivalPos="188.00" arrivalSpeed="19.00" duration="87.00" routeLength="1179.28" waitingTime="0.00" waitingCount="0" stopTime="0.00" timeLoss="24.56" rerouteNo="0" devices="tripinfo_71" vType="DEFAULT_VEHTYPE" speedFactor="0.97" vaporized=""/>
    <tripinfo id="26" depart="13.00" departLane="left0A0_0" departPos="5.10" departSpeed="0.00" departDelay="0.00" arrival="124.00" arrivalLane="C2top2_1" arrivalPos="188.00" arrivalSpeed="17.72" duration="111.00" routeLength="1194.25" waitingTime="12.00" waitingCount="1" stopTime="0.00" timeLoss="43.94" rerouteNo="0" devices="tripinfo_26" vType="DEFAULT_VEHTYPE" speedFactor="0.92" vaporized=""/>
    <tripinfo id="35" depart="20.00" departLane="bottom2C0_0" departPos="5.10" departSpeed="0.00" departDelay="2.50" arrival="125.00" arrivalLane="C2top2_0" arrivalPos="188.00" arrivalSpeed="19.09" duration="105.00" routeLength="795.71" waitingTime="52.00" waitingCount="1" stopTime="0.00" timeLoss="65.74" rerouteNo="0" devices="tripinfo_35" vType="DEFAULT_VEHTYPE" speedFactor="1.02" vaporized=""/>
    <tripinfo id="75" depart="38.00" departLane="top2C2_0" departPos="5.10" departSpeed="0.00" departDelay="0.50" arrival="126.00" arrivalLane="C0bottom2_0" arrivalPos="188.00" arrivalSpeed="19.05" duration="88.00" routeLength="795.71" waitingTime="33.00" waitingCount="1" stopTime="0.00" timeLoss="47.47" rerouteNo="0" devices="tripinfo_75" vType="DEFAULT_VEHTYPE" speedFactor="0.98" vaporized=""/>
    <tripinfo id="168" depart="84.00" departLane="bottom2C0_0" departPos="5.10" departSpeed="0.00" departDelay="0.00" arrival="127.00" arrivalLane="C1right1_0" arrivalPos="188.00" arrivalSpeed="18.99" duration="43.00" routeLength="580.47" waitingTime="0.00" waitingCount="0" stopTime="0.00" timeLoss="12.52" rerouteNo="0" devices="tripinfo_168" vType="DEFAULT_VEHTYPE" speedFactor="0.98" vaporized=""/>
    <tripinfo id="38" depart="22.00" departLane="top1B2_0" departPos="5.10" departSpeed="0.00" departDelay="3.00" arrival="128.00" arrivalLane="B0bottom1_1" arrivalPos="188.00" arrivalSpeed="21.73" duration="106.00" routeLength="795.71" waitingTime="51.00" waitingCount="1" stopTime="0.00" timeLoss="69.45" rerouteNo="0" devices="tripinfo_38" vType="DEFAULT_VEHTYPE" speedFactor="1.10" vaporized=""/>
    <tripinfo id="47" depart="24.00" departLane="bottom0A0_0" departPos="5.10" departSpeed="0.00" departDelay="0.50" arrival="128.00" arrivalLane="A2top0_0" arrivalPos="188.00" arrivalSpeed="17.01" duration="104.00" routeLength="795.71" waitingTime="48.00" waitingCount="1" stopTime="0.00" timeLoss="59.67" rerouteNo="0" devices="tripinfo_47" vType="DEFAULT_VEHTYPE" speedFactor="0.90" vaporized=""/>
    <tripinfo id="999999999" depart="11.00" departLane="right1C1_0" departPos="5.10" departSpeed="0.00" departDelay="0.00" arrival="131.00" arrivalLane="C1B1.100.00_0" arrivalPos="83.00" arrivalSpeed="0.00" duration="120.00" routeLength="382.44" waitingTime="66.00" waitingCount="3" stopTime="10.00" timeLoss="90.96" rerouteNo="0" devices="tripinfo_999999999" vType="DEFAULT_VEHTYPE" speedFactor="1.06" vaporized="traci"/>
    <tripinfo id="81" depart="43.00" departLane="bottom2C0_0" departPos="5.10" departSpeed="0.00" departDelay="2.50" arrival="132.00" arrivalLane="C2right2_0" arrivalPos="188.00" arrivalSpeed="18.75" duration="89.00" routeLength="780.74" waitingTime="30.00" waitingCount="1" stopTime="0.00" timeLoss="48.01" rerouteNo="0" devices="tripinfo_81" vType="DEFAULT_VEHTYPE" speedFactor="1.00" vaporized=""/>
    <tripinfo id="40" depart="20.00" departLane="right0C0_0" departPos="5.10" departSpeed="0.00" departDelay="0.00" arrival="135.00" arrivalLane="A2left2_1" arrivalPos="188.00" arrivalSpeed="20.00" duration="115.00" routeLength="1179.28" waitingTime="21.00" waitingCount="3" stopTime="0.00" timeLoss="55.50" rerouteNo="0" devices="tripinfo_40" vType="DEFAULT_VEHTYPE" speedFactor="1.03" vaporized=""/>
    <tripinfo id="116" depart="58.00" departLane="right1C1_0" departPos="5.10" departSpeed="0.00" departDelay="0.00" arrival="135.00" arrivalLane="C0right0_1" arrivalPos="188.00" arrivalSpeed="22.68" duration="77.00" routeLength="591.44" waitingTime="27.00" waitingCount="2" stopTime="0.00" timeLoss="49.31" rerouteNo="0" devices="tripinfo_116" vType="DEFAULT_VEHTYPE" speedFactor="1.18" vaporized=""/>
    <tripinfo id="1" depart="1.00" departLane="left0A0_0" departPos="5.10" departSpeed="0.00" departDelay="0.50" arrival="136.00" arrivalLane="A1left1_1" arrivalPos="188.00" arrivalSpeed="17.78" duration="135.00" routeLength="591.44" waitingTime="80.00" waitingCount="2" stopTime="0.00" timeLoss="100.95" rerouteNo="0" devices="tripinfo_1" vType="DEFAULT_VEHTYPE" speedFactor="0.94" vaporized=""/>
    <tripinfo id="2" depart="1.00" departLane="right2C2_0" departPos="5.10" departSpeed="0.00" departDelay="0.00" arrival="137.00" arrivalLane="C0right0_1" arrivalPos="188.00" arrivalSpeed="18.98" duration="136.00" routeLength="791.71" waitingTime="74.00" waitingCount="2" stopTime="0.00" timeLoss="94.53" rerouteNo="0" devices="tripinfo_2" vType="DEFAULT_VEHTYPE" speedFactor="1.01" vaporized=""/>
    <tripinfo id="34" depart="17.00" departLane="left0A0_0" departPos="5.10" departSpeed="0.00" departDelay="0.00" arrival="137.00" arrivalLane="A2left2_1" arrivalPos="188.00" arrivalSpeed="19.55" duration="120.00" routeLength="791.71" waitingTime="53.00" waitingCount="2" stopTime="0.00" timeLoss="77.40" rerouteNo="0" devices="tripinfo_34" vType="DEFAULT_VEHTYPE" speedFactor="0.99" vaporized=""/>
    <tripinfo id="49" depart="28.00" departLane="top2C2_0" departPos="5.10" departSpeed="0.00" departDelay="3.50" arrival="137.00" arrivalLane="C2right2_1" arrivalPos="188.00" arrivalSpeed="15.71" duration="109.00" routeLength="393.17" waitingTime="74.00" waitingCount="1" stopTime="0.00" timeLoss="84.70" rerouteNo="0" devices="tripinfo_49" vType="DEFAULT_VEHTYPE" speedFactor="0.85" vaporized=""/>
    <tripinfo id="39" depart="20.00" departLane="left0A0_0" departPos="5.10" departSpeed="0.00" departDelay="0.50" arrival="138.00" arrivalLane="A1left1_1" arrivalPos="188.00" arrivalSpeed="17.53" duration="118.00" routeLength="591.44" waitingTime="60.00" waitingCount="2" stopTime="0.00" timeLoss="82.67" rerouteNo="0" devices="tripinfo_39" vType="DEFAULT_VEHTYPE" speedFactor="0.90" vaporized=""/>
    <tripinfo id="62" depart="31.00" departLane="bottom0A0_0" departPos="5.10" departSpeed="0.00" departDelay="0.00" arrival="139.00" arrivalLane="A2left2_1" arrivalPos="188.00" arrivalSpeed="19.44" duration="108.00" routeLength="793.71" waitingTime="43.00" waitingCount="2" stopTime="0.00" timeLoss="66.95" rerouteNo="0" devices="tripinfo_62" vType="DEFAULT_VEHTYPE" speedFactor="1.02" vaporized=""/>
    <tripinfo id="90" depart="45.00" departLane="right2C2_0" departPos="5.10" departSpeed="0.00" departDelay="0.00" arrival="139.00" arrivalLane="C0right0_1" arrivalPos="188.00" arrivalSpeed="19.72" duration="94.00" routeLength="791.71" waitingTime="31.00" waitingCount="2" stopTime="0.00" timeLoss="52.69" rerouteNo="0" devices="tripinfo_90" vType="DEFAULT_VEHTYPE" speedFactor="1.02" vaporized=""/>
    <tripinfo id="99" depart="50.00" departLane="top2C2_0" departPos="5.10" departSpeed="0.00" departDelay="0.50" arrival="139.00" arrivalLane="C2right2_1" arrivalPos="188.00" arrivalSpeed="20.26" duration="89.00" routeLength="393.17" waitingTime="53.00" waitingCount="1" stopTime="0.00" timeLoss="69.53" rerouteNo="0" devices="tripinfo_99" vType="DEFAULT_VEHTYPE" speedFactor="1.10" vaporized=""/>
    <tripinfo id="115" depart="59.00" departLane="bottom0A0_0" departPos="5.10" departSpeed="0.00" departDelay="1.50" arrival="140.00" arrivalLane="A1left1_1" arrivalPos="188.00" arrivalSpeed="17.72" duration="81.00" routeLength="593.44" waitingTime="26.00" waitingCount="2" stopTime="0.00" timeLoss="47.14" rerouteNo="0" devices="tripinfo_115" vType="DEFAULT_VEHTYPE" speedFactor="0.92" vaporized=""/>
    <tripinfo id="128" depart="66.00" departLane="bottom0A0_0" departPos="5.10" departSpeed="0.00" departDelay="2.00" arrival="142.00" arrivalLane="A1left1_1" arrivalPos="188.00" arrivalSpeed="20.97" duration="76.00" routeLength="593.44" waitingTime="22.00" waitingCount="2" stopTime="0.00" timeLoss="47.87" rerouteNo="0" devices="tripinfo_128" vType="DEFAULT_VEHTYPE" speedFactor="1.12" vaporized=""/>
    <tripinfo id="171" depart="86.00" departLane="bottom0A0_0" departPos="5.10" departSpeed="0.00" departDelay="0.50" arrival="145.00" arrivalLane="A1left1_1" arrivalPos="188.00" arrivalSpeed="17.80" duration="59.00" routeLength="593.44" waitingTime="8.00" waitingCount="1" stopTime="0.00" timeLoss="24.12" rerouteNo="0" devices="tripinfo_171" vType="DEFAULT_VEHTYPE" speedFactor="0.90" vaporized=""/>
    <tripinfo id="57" depart="31.00" departLane="top1B2_0" departPos="5.10" departSpeed="0.00" departDelay="2.50" arrival="146.00" arrivalLane="C2right2_1" arrivalPos="188.00" arrivalSpeed="22.15" duration="115.00" routeLength="593.44" waitingTime="69.00" waitingCount="1" stopTime="0.00" timeLoss="87.81" rerouteNo="0" devices="tripinfo_57" vType="DEFAULT_VEHTYPE" speedFactor="1.14" vaporized=""/>
    <tripinfo id="32" depart="16.00" departLane="top1B2_0" departPos="5.10" departSpeed="0.00" departDelay="0.00" arrival="147.00" arrivalLane="C1right1_1" arrivalPos="188.00" arrivalSpeed="19.06" duration="131.00" routeLength="793.71" waitingTime="67.00" waitingCount="2" stopTime="0.00" timeLoss="89.62" rerouteNo="0" devices="tripinfo_32" vType="DEFAULT_VEHTYPE" speedFactor="1.01" vaporized=""/>
    <tripinfo id="3" depart="2.00" departLane="top1B2_0" departPos="5.10" departSpeed="0.00" departDelay="0.50" arrival="149.00" arrivalLane="A0left0_0" arrivalPos="188.00" arrivalSpeed="20.35" duration="147.00" routeLength="981.01" waitingTime="77.00" waitingCount="2" stopTime="0.00" timeLoss="101.16" rerouteNo="0" devices="tripinfo_3" vType="DEFAULT_VEHTYPE" speedFactor="1.08" vaporized=""/>
    <tripinfo id="43" depart="22.00" departLane="top2C2_0" departPos="5.10" departSpeed="0.00" departDelay="0.50" arrival="149.00" arrivalLane="B2top1_0" arrivalPos="188.00" arrivalSpeed="19.56" duration="127.00" routeLength="565.50" waitingTime="77.00" waitingCount="2" stopTime="0.00" timeLoss="97.56" rerouteNo="0" devices="tripinfo_43" vType="DEFAULT_VEHTYPE" speedFactor="1.04" vaporized=""/>
    <tripinfo id="58" depart="29.00" departLane="left0A0_0" departPos="5.10" departSpeed="0.00" departDelay="0.00" arrival="149.00" arrivalLane="C0bottom2_0" arrivalPos="188.00" arrivalSpeed="20.01" duration="120.00" routeLength="780.74" waitingTime="56.00" waitingCount="1" stopTime="0.00" timeLoss="80.72" rerouteNo="0" devices="tripinfo_58" vType="DEFAULT_VEHTYPE" speedFactor="1.02" vaporized=""/>
    <tripinfo id="64" depart="34.00" departLane="top1B2_0" departPos="5.10" departSpeed="0.00" departDelay="2.00" arrival="149.00" arrivalLane="C1right1_1" arrivalPos="188.00" arrivalSpeed="18.07" duration="115.00" routeLength="793.71" waitingTime="49.00" waitingCount="2" stopTime="0.00" timeLoss="71.17" rerouteNo="0" devices="tripinfo_64" vType="DEFAULT_VEHTYPE" speedFactor="0.94" vaporized=""/>
    <tripinfo id="132" depart="68.00" departLane="top1B2_0" departPos="5.10" departSpeed="0.00" departDelay="2.00" arrival="149.00" arrivalLane="C0right0_1" arrivalPos="188.00" arrivalSpeed="19.19" duration="81.00" routeLength="993.98" waitingTime="7.00" waitingCount="1" stopTime="0.00" timeLoss="27.34" rerouteNo="0" devices="tripinfo_132" vType="DEFAULT_VEHTYPE" speedFactor="0.96" vaporized=""/>
    <tripinfo id="36" depart="19.00" departLane="top1B2_0" departPos="5.10" departSpeed="0.00" departDelay="1.00" arrival="150.00" arrivalLane="A2left2_0" arrivalPos="188.00" arrivalSpeed="19.30" duration="131.00" routeLength="580.47" waitingTime="80.00" waitingCount="2" stopTime="0.00" timeLoss="100.17" rerouteNo="0" devices="tripinfo_36" vType="DEFAULT_VEHTYPE" speedFactor="0.97" vaporized=""/>
    <tripinfo id="55" depart="28.00" departLane="top1B2_0" departPos="5.10" departSpeed="0.00" departDelay="0.50" arrival="150.00" arrivalLane="A2left2_1" arrivalPos="188.00" arrivalSpeed="18.85" duration="122.00" routeLength="580.47" waitingTime="70.00" waitingCount="2" stopTime="0.00" timeLoss="91.03" rerouteNo="0" devices="tripinfo_55" vType="DEFAULT_VEHTYPE" speedFactor="1.00" vaporized=""/>
    <tripinfo id="93" depart="47.00" departLane="top1B2_0" departPos="5.10" departSpeed="0.00" departDelay="0.50" arrival="150.00" arrivalLane="A1left1_1" arrivalPos="188.00" arrivalSpeed="17.96" duration="103.00" routeLength="780.74" waitingTime="32.00" waitingCount="2" stopTime="0.00" timeLoss="59.23" rerouteNo="0" devices="tripinfo_93" vType="DEFAULT_VEHTYPE" speedFactor="0.92" vaporized=""/>
    <tripinfo id="130" depart="65.00" departLane="top1B2_0" departPos="5.10" departSpeed="0.00" departDelay="0.00" arrival="150.00" arrivalLane="C2right2_1" arrivalPos="188.00" arrivalSpeed="20.58" duration="85.00" routeLength="593.44" waitingTime="39.00" waitingCount="1" stopTime="0.00" timeLoss="54.59" rerouteNo="0" devices="tripinfo_130" vType="DEFAULT_VEHTYPE" speedFactor="1.03" vaporized=""/>
    <tripinfo id="45" depart="24.00" departLane="bottom1B0_0" departPos="5.10" departSpeed="0.00" departDelay="1.50" arrival="151.00" arrivalLane="C0bottom2_0" arrivalPos="188.00" arrivalSpeed="21.72" duration="127.00" routeLength="565.50" waitingTime="76.00" waitingCount="2" stopTime="0.00" timeLoss="99.18" rerouteNo="0" devices="tripinfo_45" vType="DEFAULT_VEHTYPE" speedFactor="1.09" vaporized=""/>
    <tripinfo id="137" depart="69.00" departLane="bottom1B0_0" departPos="5.10" departSpeed="0.00" departDelay="0.50" arrival="151.00" arrivalLane="A0left0_1" arrivalPos="188.00" arrivalSpeed="20.11" duration="82.00" routeLength="593.44" waitingTime="32.00" waitingCount="1" stopTime="0.00" timeLoss="51.63" rerouteNo="0" devices="tripinfo_137" vType="DEFAULT_VEHTYPE" speedFactor="1.02" vaporized=""/>