<?xml version="1.0" encoding="UTF-8"?>

<!-- generated on Mon 19 Jul 2021 07:08:47 PM CDT by Eclipse SUMO GUI Version v1_8_0+1542-ea67ae728a
<configuration xmlns:xsi="http://www.w3.org/2001/XMLSchema-instance" xsi:noNamespaceSchemaLocation="http://sumo.dlr.de/xsd/sumoConfiguration.xsd">

    <input>
        <net-file value="../networks/grid2/net.net.xml"/>
        <route-files value="../networks/grid2/random.rou.xml"/>
    </input>

    <output>
        <tripinfo-output value="tripinfo.xml"/>
    </output>

    <processing>
        <time-to-teleport value="1800"/>
    </processing>

    <traci_server>
        <remote-port value="9000"/>
    </traci_server>

</configuration>
-->

<tripinfos xmlns:xsi="http://www.w3.org/2001/XMLSchema-instance" xsi:noNamespaceSchemaLocation="http://sumo.dlr.de/xsd/tripinfo_file.xsd">
</tripinfos>
