<?xml version="1.0" encoding="UTF-8"?>

<!-- generated on Wed 21 Oct 2020 08:49:54 AM CDT by Eclipse SUMO GUI Version ead5c54e
<configuration xmlns:xsi="http://www.w3.org/2001/XMLSchema-instance" xsi:noNamespaceSchemaLocation="http://sumo.dlr.de/xsd/sumoConfiguration.xsd">

    <input>
        <net-file value="simple.net.xml"/>
        <route-files value="input_routes.rou.xml"/>
        <additional-files value="NEMA1.add.xml"/>
    </input>

    <processing>
        <tls.actuated.show-detectors value="true"/>
    </processing>

</configuration>
-->

<detector xmlns:xsi="http://www.w3.org/2001/XMLSchema-instance" xsi:noNamespaceSchemaLocation="http://sumo.dlr.de/xsd/det_e2_file.xsd">
</detector>
